 Fermi distribution function

Calculation with static geometry


********************************************************************************
 iSCC Total electronic   Diff electronic      SCC error    
    2   -0.10684072E+02    0.00000000E+00    0.12548920E-01
********************************************************************************

 Total charge:    -0.00000000

 Atomic gross charges (e)
 Atom           Charge
    1      -0.01634064
    2      -0.01634064
    3      -0.01634065
    4      -0.01634065
    5       0.03268129
    6       0.03268129

Nr. of electrons (up):     24.00000000
Atom populations (up)
 Atom       Population
    1       4.01634064
    2       4.01634064
    3       4.01634065
    4       4.01634065
    5       3.96731871
    6       3.96731871

l-shell populations (up)
 Atom Sh.   l       Population
    1   1   0       1.21433029
    1   2   1       2.80201035
    2   1   0       1.21433029
    2   2   1       2.80201035
    3   1   0       1.21433029
    3   2   1       2.80201036
    4   1   0       1.21433029
    4   2   1       2.80201036
    5   1   0       1.16565561
    5   2   1       2.80166310
    6   1   0       1.16565561
    6   2   1       2.80166310

Orbital populations (up)
 Atom Sh.   l   m       Population  Label
    1   1   0   0       1.21433029  s
    1   2   1  -1       0.94025466  p_y
    1   2   1   0       0.99081488  p_z
    1   2   1   1       0.87094081  p_x
    2   1   0   0       1.21433029  s
    2   2   1  -1       0.94025466  p_y
    2   2   1   0       0.99081488  p_z
    2   2   1   1       0.87094081  p_x
    3   1   0   0       1.21433029  s
    3   2   1  -1       0.94025466  p_y
    3   2   1   0       0.99081489  p_z
    3   2   1   1       0.87094081  p_x
    4   1   0   0       1.21433029  s
    4   2   1  -1       0.94025466  p_y
    4   2   1   0       0.99081489  p_z
    4   2   1   1       0.87094081  p_x
    5   1   0   0       1.16565561  s
    5   2   1  -1       0.87900157  p_y
    5   2   1   0       1.01837023  p_z
    5   2   1   1       0.90429130  p_x
    6   1   0   0       1.16565561  s
    6   2   1  -1       0.87900157  p_y
    6   2   1   0       1.01837023  p_z
    6   2   1   1       0.90429130  p_x

Fermi level:                        -0.1722089160 H           -4.6860 eV
Band energy:                       -10.6815279174 H         -290.6592 eV
TS:                                  0.0000020424 H            0.0001 eV
Band free energy (E-TS):           -10.6815299598 H         -290.6592 eV
Extrapolated E(0K):                -10.6815289386 H         -290.6592 eV
Input / Output electrons (q):     24.0000000000     24.0000000000

Energy H0:                         -10.6842122755 H         -290.7322 eV
Energy SCC:                          0.0001407516 H            0.0038 eV
Total Electronic energy:           -10.6840715239 H         -290.7284 eV
Repulsive energy:                    0.4189371342 H           11.3999 eV
Total energy:                      -10.2651343897 H         -279.3285 eV
Extrapolated to 0:                 -10.2651354109 H         -279.3285 eV
Total Mermin free energy:          -10.2651364321 H         -279.3286 eV
Force related energy:              -10.2651364321 H         -279.3286 eV

