|===============================================================================
|
|  DFTB+ release 22.1
|
|  Copyright (C) 2006 - 2022  DFTB+ developers group
|
|===============================================================================
|
|  When publishing results obtained with DFTB+, please cite the following
|  reference:
|
|  * DFTB+, a software package for efficient approximate density functional
|    theory based atomistic simulations, J. Chem. Phys. 152, 124101 (2020).
|    [doi: 10.1063/1.5143190]
|
|  You should also cite additional publications crediting the parametrization
|  data you use. Please consult the documentation of the SK-files for the
|  references.
|
|===============================================================================

Reading input file 'dftb_in.hsd'
Parser version: 11

--------------------------------------------------------------------------------
***  Converting input from parser version  7 to parser version 11 ...
***  Done.

Reading SK-files:
/Users/marceloalvesferreira/Desktop/recipes2/slakos/download/mio/mio-1-1/C-C.skf
Done.


Processed input in HSD format written to 'dftb_pin.hsd'

Starting initialization...
--------------------------------------------------------------------------------
WARNING!
-> Dipole printed for extended system : value printed is not well defined
OpenMP threads:              4
Chosen random seed:          1031208127
Mode:                        Static calculation
Self consistent charges:     Yes
SCC-tolerance:                 0.100000E-04
Max. scc iterations:                      1
Shell resolved Hubbard:      No
Spin polarisation:           No
Nr. of up electrons:            12.000000
Nr. of down electrons:          12.000000
Periodic boundaries:         Yes
Electronic solver:           Relatively robust
Mixer:                       Broyden mixer
Mixing parameter:                  0.200000
Maximal SCC-cycles:                       1
Nr. of chrg. vec. in memory:              1
Electronic temperature:              0.316682E-03 H      0.861734E-02 eV
Initial charges:             Read in from 'charges'
Included shells:             C:  s, p
K-points and weights:           1:  0.000000  0.000000  0.000000     0.000250
                                2:  0.000500  0.000000  0.000000     0.000250
                                3:  0.001000  0.000000  0.000000     0.000250
                                4:  0.001500  0.000000  0.000000     0.000250
                                5:  0.002000  0.000000  0.000000     0.000250
                                6:  0.002500  0.000000  0.000000     0.000250
                                7:  0.003000  0.000000  0.000000     0.000250
                                8:  0.003500  0.000000  0.000000     0.000250
                                9:  0.004000  0.000000  0.000000     0.000250
                               10:  0.004500  0.000000  0.000000     0.000250
                               11:  0.005000  0.000000  0.000000     0.000250
                               12:  0.005500  0.000000  0.000000     0.000250
                               13:  0.006000  0.000000  0.000000     0.000250
                               14:  0.006500  0.000000  0.000000     0.000250
                               15:  0.007000  0.000000  0.000000     0.000250
                               16:  0.007500  0.000000  0.000000     0.000250
                               17:  0.008000  0.000000  0.000000     0.000250
                               18:  0.008500  0.000000  0.000000     0.000250
                               19:  0.009000  0.000000  0.000000     0.000250
                               20:  0.009500  0.000000  0.000000     0.000250
                               21:  0.010000  0.000000  0.000000     0.000250
                               22:  0.010500  0.000000  0.000000     0.000250
                               23:  0.011000  0.000000  0.000000     0.000250
                               24:  0.011500  0.000000  0.000000     0.000250
                               25:  0.012000  0.000000  0.000000     0.000250
                               26:  0.012500  0.000000  0.000000     0.000250
                               27:  0.013000  0.000000  0.000000     0.000250
                               28:  0.013500  0.000000  0.000000     0.000250
                               29:  0.014000  0.000000  0.000000     0.000250
                               30:  0.014500  0.000000  0.000000     0.000250
                               31:  0.015000  0.000000  0.000000     0.000250
                               32:  0.015500  0.000000  0.000000     0.000250
                               33:  0.016000  0.000000  0.000000     0.000250
                               34:  0.016500  0.000000  0.000000     0.000250
                               35:  0.017000  0.000000  0.000000     0.000250
                               36:  0.017500  0.000000  0.000000     0.000250
                               37:  0.018000  0.000000  0.000000     0.000250
                               38:  0.018500  0.000000  0.000000     0.000250
                               39:  0.019000  0.000000  0.000000     0.000250
                               40:  0.019500  0.000000  0.000000     0.000250
                               41:  0.020000  0.000000  0.000000     0.000250
                               42:  0.020500  0.000000  0.000000     0.000250
                               43:  0.021000  0.000000  0.000000     0.000250
                               44:  0.021500  0.000000  0.000000     0.000250
                               45:  0.022000  0.000000  0.000000     0.000250
                               46:  0.022500  0.000000  0.000000     0.000250
                               47:  0.023000  0.000000  0.000000     0.000250
                               48:  0.023500  0.000000  0.000000     0.000250
                               49:  0.024000  0.000000  0.000000     0.000250
                               50:  0.024500  0.000000  0.000000     0.000250
                               51:  0.025000  0.000000  0.000000     0.000250
                               52:  0.025500  0.000000  0.000000     0.000250
                               53:  0.026000  0.000000  0.000000     0.000250
                               54:  0.026500  0.000000  0.000000     0.000250
                               55:  0.027000  0.000000  0.000000     0.000250
                               56:  0.027500  0.000000  0.000000     0.000250
                               57:  0.028000  0.000000  0.000000     0.000250
                               58:  0.028500  0.000000  0.000000     0.000250
                               59:  0.029000  0.000000  0.000000     0.000250
                               60:  0.029500  0.000000  0.000000     0.000250
                               61:  0.030000  0.000000  0.000000     0.000250
                               62:  0.030500  0.000000  0.000000     0.000250
                               63:  0.031000  0.000000  0.000000     0.000250
                               64:  0.031500  0.000000  0.000000     0.000250
                               65:  0.032000  0.000000  0.000000     0.000250
                               66:  0.032500  0.000000  0.000000     0.000250
                               67:  0.033000  0.000000  0.000000     0.000250
                               68:  0.033500  0.000000  0.000000     0.000250
                               69:  0.034000  0.000000  0.000000     0.000250
                               70:  0.034500  0.000000  0.000000     0.000250
                               71:  0.035000  0.000000  0.000000     0.000250
                               72:  0.035500  0.000000  0.000000     0.000250
                               73:  0.036000  0.000000  0.000000     0.000250
                               74:  0.036500  0.000000  0.000000     0.000250
                               75:  0.037000  0.000000  0.000000     0.000250
                               76:  0.037500  0.000000  0.000000     0.000250
                               77:  0.038000  0.000000  0.000000     0.000250
                               78:  0.038500  0.000000  0.000000     0.000250
                               79:  0.039000  0.000000  0.000000     0.000250
                               80:  0.039500  0.000000  0.000000     0.000250
                               81:  0.040000  0.000000  0.000000     0.000250
                               82:  0.040500  0.000000  0.000000     0.000250
                               83:  0.041000  0.000000  0.000000     0.000250
                               84:  0.041500  0.000000  0.000000     0.000250
                               85:  0.042000  0.000000  0.000000     0.000250
                               86:  0.042500  0.000000  0.000000     0.000250
                               87:  0.043000  0.000000  0.000000     0.000250
                               88:  0.043500  0.000000  0.000000     0.000250
                               89:  0.044000  0.000000  0.000000     0.000250
                               90:  0.044500  0.000000  0.000000     0.000250
                               91:  0.045000  0.000000  0.000000     0.000250
                               92:  0.045500  0.000000  0.000000     0.000250
                               93:  0.046000  0.000000  0.000000     0.000250
                               94:  0.046500  0.000000  0.000000     0.000250
                               95:  0.047000  0.000000  0.000000     0.000250
                               96:  0.047500  0.000000  0.000000     0.000250
                               97:  0.048000  0.000000  0.000000     0.000250
                               98:  0.048500  0.000000  0.000000     0.000250
                               99:  0.049000  0.000000  0.000000     0.000250
                              100:  0.049500  0.000000  0.000000     0.000250
                              101:  0.050000  0.000000  0.000000     0.000250
                              102:  0.050500  0.000000  0.000000     0.000250
                              103:  0.051000  0.000000  0.000000     0.000250
                              104:  0.051500  0.000000  0.000000     0.000250
                              105:  0.052000  0.000000  0.000000     0.000250
                              106:  0.052500  0.000000  0.000000     0.000250
                              107:  0.053000  0.000000  0.000000     0.000250
                              108:  0.053500  0.000000  0.000000     0.000250
                              109:  0.054000  0.000000  0.000000     0.000250
                              110:  0.054500  0.000000  0.000000     0.000250
                              111:  0.055000  0.000000  0.000000     0.000250
                              112:  0.055500  0.000000  0.000000     0.000250
                              113:  0.056000  0.000000  0.000000     0.000250
                              114:  0.056500  0.000000  0.000000     0.000250
                              115:  0.057000  0.000000  0.000000     0.000250
                              116:  0.057500  0.000000  0.000000     0.000250
                              117:  0.058000  0.000000  0.000000     0.000250
                              118:  0.058500  0.000000  0.000000     0.000250
                              119:  0.059000  0.000000  0.000000     0.000250
                              120:  0.059500  0.000000  0.000000     0.000250
                              121:  0.060000  0.000000  0.000000     0.000250
                              122:  0.060500  0.000000  0.000000     0.000250
                              123:  0.061000  0.000000  0.000000     0.000250
                              124:  0.061500  0.000000  0.000000     0.000250
                              125:  0.062000  0.000000  0.000000     0.000250
                              126:  0.062500  0.000000  0.000000     0.000250
                              127:  0.063000  0.000000  0.000000     0.000250
                              128:  0.063500  0.000000  0.000000     0.000250
                              129:  0.064000  0.000000  0.000000     0.000250
                              130:  0.064500  0.000000  0.000000     0.000250
                              131:  0.065000  0.000000  0.000000     0.000250
                              132:  0.065500  0.000000  0.000000     0.000250
                              133:  0.066000  0.000000  0.000000     0.000250
                              134:  0.066500  0.000000  0.000000     0.000250
                              135:  0.067000  0.000000  0.000000     0.000250
                              136:  0.067500  0.000000  0.000000     0.000250
                              137:  0.068000  0.000000  0.000000     0.000250
                              138:  0.068500  0.000000  0.000000     0.000250
                              139:  0.069000  0.000000  0.000000     0.000250
                              140:  0.069500  0.000000  0.000000     0.000250
                              141:  0.070000  0.000000  0.000000     0.000250
                              142:  0.070500  0.000000  0.000000     0.000250
                              143:  0.071000  0.000000  0.000000     0.000250
                              144:  0.071500  0.000000  0.000000     0.000250
                              145:  0.072000  0.000000  0.000000     0.000250
                              146:  0.072500  0.000000  0.000000     0.000250
                              147:  0.073000  0.000000  0.000000     0.000250
                              148:  0.073500  0.000000  0.000000     0.000250
                              149:  0.074000  0.000000  0.000000     0.000250
                              150:  0.074500  0.000000  0.000000     0.000250
                              151:  0.075000  0.000000  0.000000     0.000250
                              152:  0.075500  0.000000  0.000000     0.000250
                              153:  0.076000  0.000000  0.000000     0.000250
                              154:  0.076500  0.000000  0.000000     0.000250
                              155:  0.077000  0.000000  0.000000     0.000250
                              156:  0.077500  0.000000  0.000000     0.000250
                              157:  0.078000  0.000000  0.000000     0.000250
                              158:  0.078500  0.000000  0.000000     0.000250
                              159:  0.079000  0.000000  0.000000     0.000250
                              160:  0.079500  0.000000  0.000000     0.000250
                              161:  0.080000  0.000000  0.000000     0.000250
                              162:  0.080500  0.000000  0.000000     0.000250
                              163:  0.081000  0.000000  0.000000     0.000250
                              164:  0.081500  0.000000  0.000000     0.000250
                              165:  0.082000  0.000000  0.000000     0.000250
                              166:  0.082500  0.000000  0.000000     0.000250
                              167:  0.083000  0.000000  0.000000     0.000250
                              168:  0.083500  0.000000  0.000000     0.000250
                              169:  0.084000  0.000000  0.000000     0.000250
                              170:  0.084500  0.000000  0.000000     0.000250
                              171:  0.085000  0.000000  0.000000     0.000250
                              172:  0.085500  0.000000  0.000000     0.000250
                              173:  0.086000  0.000000  0.000000     0.000250
                              174:  0.086500  0.000000  0.000000     0.000250
                              175:  0.087000  0.000000  0.000000     0.000250
                              176:  0.087500  0.000000  0.000000     0.000250
                              177:  0.088000  0.000000  0.000000     0.000250
                              178:  0.088500  0.000000  0.000000     0.000250
                              179:  0.089000  0.000000  0.000000     0.000250
                              180:  0.089500  0.000000  0.000000     0.000250
                              181:  0.090000  0.000000  0.000000     0.000250
                              182:  0.090500  0.000000  0.000000     0.000250
                              183:  0.091000  0.000000  0.000000     0.000250
                              184:  0.091500  0.000000  0.000000     0.000250
                              185:  0.092000  0.000000  0.000000     0.000250
                              186:  0.092500  0.000000  0.000000     0.000250
                              187:  0.093000  0.000000  0.000000     0.000250
                              188:  0.093500  0.000000  0.000000     0.000250
                              189:  0.094000  0.000000  0.000000     0.000250
                              190:  0.094500  0.000000  0.000000     0.000250
                              191:  0.095000  0.000000  0.000000     0.000250
                              192:  0.095500  0.000000  0.000000     0.000250
                              193:  0.096000  0.000000  0.000000     0.000250
                              194:  0.096500  0.000000  0.000000     0.000250
                              195:  0.097000  0.000000  0.000000     0.000250
                              196:  0.097500  0.000000  0.000000     0.000250
                              197:  0.098000  0.000000  0.000000     0.000250
                              198:  0.098500  0.000000  0.000000     0.000250
                              199:  0.099000  0.000000  0.000000     0.000250
                              200:  0.099500  0.000000  0.000000     0.000250
                              201:  0.100000  0.000000  0.000000     0.000250
                              202:  0.100500  0.000000  0.000000     0.000250
                              203:  0.101000  0.000000  0.000000     0.000250
                              204:  0.101500  0.000000  0.000000     0.000250
                              205:  0.102000  0.000000  0.000000     0.000250
                              206:  0.102500  0.000000  0.000000     0.000250
                              207:  0.103000  0.000000  0.000000     0.000250
                              208:  0.103500  0.000000  0.000000     0.000250
                              209:  0.104000  0.000000  0.000000     0.000250
                              210:  0.104500  0.000000  0.000000     0.000250
                              211:  0.105000  0.000000  0.000000     0.000250
                              212:  0.105500  0.000000  0.000000     0.000250
                              213:  0.106000  0.000000  0.000000     0.000250
                              214:  0.106500  0.000000  0.000000     0.000250
                              215:  0.107000  0.000000  0.000000     0.000250
                              216:  0.107500  0.000000  0.000000     0.000250
                              217:  0.108000  0.000000  0.000000     0.000250
                              218:  0.108500  0.000000  0.000000     0.000250
                              219:  0.109000  0.000000  0.000000     0.000250
                              220:  0.109500  0.000000  0.000000     0.000250
                              221:  0.110000  0.000000  0.000000     0.000250
                              222:  0.110500  0.000000  0.000000     0.000250
                              223:  0.111000  0.000000  0.000000     0.000250
                              224:  0.111500  0.000000  0.000000     0.000250
                              225:  0.112000  0.000000  0.000000     0.000250
                              226:  0.112500  0.000000  0.000000     0.000250
                              227:  0.113000  0.000000  0.000000     0.000250
                              228:  0.113500  0.000000  0.000000     0.000250
                              229:  0.114000  0.000000  0.000000     0.000250
                              230:  0.114500  0.000000  0.000000     0.000250
                              231:  0.115000  0.000000  0.000000     0.000250
                              232:  0.115500  0.000000  0.000000     0.000250
                              233:  0.116000  0.000000  0.000000     0.000250
                              234:  0.116500  0.000000  0.000000     0.000250
                              235:  0.117000  0.000000  0.000000     0.000250
                              236:  0.117500  0.000000  0.000000     0.000250
                              237:  0.118000  0.000000  0.000000     0.000250
                              238:  0.118500  0.000000  0.000000     0.000250
                              239:  0.119000  0.000000  0.000000     0.000250
                              240:  0.119500  0.000000  0.000000     0.000250
                              241:  0.120000  0.000000  0.000000     0.000250
                              242:  0.120500  0.000000  0.000000     0.000250
                              243:  0.121000  0.000000  0.000000     0.000250
                              244:  0.121500  0.000000  0.000000     0.000250
                              245:  0.122000  0.000000  0.000000     0.000250
                              246:  0.122500  0.000000  0.000000     0.000250
                              247:  0.123000  0.000000  0.000000     0.000250
                              248:  0.123500  0.000000  0.000000     0.000250
                              249:  0.124000  0.000000  0.000000     0.000250
                              250:  0.124500  0.000000  0.000000     0.000250
                              251:  0.125000  0.000000  0.000000     0.000250
                              252:  0.125500  0.000000  0.000000     0.000250
                              253:  0.126000  0.000000  0.000000     0.000250
                              254:  0.126500  0.000000  0.000000     0.000250
                              255:  0.127000  0.000000  0.000000     0.000250
                              256:  0.127500  0.000000  0.000000     0.000250
                              257:  0.128000  0.000000  0.000000     0.000250
                              258:  0.128500  0.000000  0.000000     0.000250
                              259:  0.129000  0.000000  0.000000     0.000250
                              260:  0.129500  0.000000  0.000000     0.000250
                              261:  0.130000  0.000000  0.000000     0.000250
                              262:  0.130500  0.000000  0.000000     0.000250
                              263:  0.131000  0.000000  0.000000     0.000250
                              264:  0.131500  0.000000  0.000000     0.000250
                              265:  0.132000  0.000000  0.000000     0.000250
                              266:  0.132500  0.000000  0.000000     0.000250
                              267:  0.133000  0.000000  0.000000     0.000250
                              268:  0.133500  0.000000  0.000000     0.000250
                              269:  0.134000  0.000000  0.000000     0.000250
                              270:  0.134500  0.000000  0.000000     0.000250
                              271:  0.135000  0.000000  0.000000     0.000250
                              272:  0.135500  0.000000  0.000000     0.000250
                              273:  0.136000  0.000000  0.000000     0.000250
                              274:  0.136500  0.000000  0.000000     0.000250
                              275:  0.137000  0.000000  0.000000     0.000250
                              276:  0.137500  0.000000  0.000000     0.000250
                              277:  0.138000  0.000000  0.000000     0.000250
                              278:  0.138500  0.000000  0.000000     0.000250
                              279:  0.139000  0.000000  0.000000     0.000250
                              280:  0.139500  0.000000  0.000000     0.000250
                              281:  0.140000  0.000000  0.000000     0.000250
                              282:  0.140500  0.000000  0.000000     0.000250
                              283:  0.141000  0.000000  0.000000     0.000250
                              284:  0.141500  0.000000  0.000000     0.000250
                              285:  0.142000  0.000000  0.000000     0.000250
                              286:  0.142500  0.000000  0.000000     0.000250
                              287:  0.143000  0.000000  0.000000     0.000250
                              288:  0.143500  0.000000  0.000000     0.000250
                              289:  0.144000  0.000000  0.000000     0.000250
                              290:  0.144500  0.000000  0.000000     0.000250
                              291:  0.145000  0.000000  0.000000     0.000250
                              292:  0.145500  0.000000  0.000000     0.000250
                              293:  0.146000  0.000000  0.000000     0.000250
                              294:  0.146500  0.000000  0.000000     0.000250
                              295:  0.147000  0.000000  0.000000     0.000250
                              296:  0.147500  0.000000  0.000000     0.000250
                              297:  0.148000  0.000000  0.000000     0.000250
                              298:  0.148500  0.000000  0.000000     0.000250
                              299:  0.149000  0.000000  0.000000     0.000250
                              300:  0.149500  0.000000  0.000000     0.000250
                              301:  0.150000  0.000000  0.000000     0.000250
                              302:  0.150500  0.000000  0.000000     0.000250
                              303:  0.151000  0.000000  0.000000     0.000250
                              304:  0.151500  0.000000  0.000000     0.000250
                              305:  0.152000  0.000000  0.000000     0.000250
                              306:  0.152500  0.000000  0.000000     0.000250
                              307:  0.153000  0.000000  0.000000     0.000250
                              308:  0.153500  0.000000  0.000000     0.000250
                              309:  0.154000  0.000000  0.000000     0.000250
                              310:  0.154500  0.000000  0.000000     0.000250
                              311:  0.155000  0.000000  0.000000     0.000250
                              312:  0.155500  0.000000  0.000000     0.000250
                              313:  0.156000  0.000000  0.000000     0.000250
                              314:  0.156500  0.000000  0.000000     0.000250
                              315:  0.157000  0.000000  0.000000     0.000250
                              316:  0.157500  0.000000  0.000000     0.000250
                              317:  0.158000  0.000000  0.000000     0.000250
                              318:  0.158500  0.000000  0.000000     0.000250
                              319:  0.159000  0.000000  0.000000     0.000250
                              320:  0.159500  0.000000  0.000000     0.000250
                              321:  0.160000  0.000000  0.000000     0.000250
                              322:  0.160500  0.000000  0.000000     0.000250
                              323:  0.161000  0.000000  0.000000     0.000250
                              324:  0.161500  0.000000  0.000000     0.000250
                              325:  0.162000  0.000000  0.000000     0.000250
                              326:  0.162500  0.000000  0.000000     0.000250
                              327:  0.163000  0.000000  0.000000     0.000250
                              328:  0.163500  0.000000  0.000000     0.000250
                              329:  0.164000  0.000000  0.000000     0.000250
                              330:  0.164500  0.000000  0.000000     0.000250
                              331:  0.165000  0.000000  0.000000     0.000250
                              332:  0.165500  0.000000  0.000000     0.000250
                              333:  0.166000  0.000000  0.000000     0.000250
                              334:  0.166500  0.000000  0.000000     0.000250
                              335:  0.167000  0.000000  0.000000     0.000250
                              336:  0.167500  0.000000  0.000000     0.000250
                              337:  0.168000  0.000000  0.000000     0.000250
                              338:  0.168500  0.000000  0.000000     0.000250
                              339:  0.169000  0.000000  0.000000     0.000250
                              340:  0.169500  0.000000  0.000000     0.000250
                              341:  0.170000  0.000000  0.000000     0.000250
                              342:  0.170500  0.000000  0.000000     0.000250
                              343:  0.171000  0.000000  0.000000     0.000250
                              344:  0.171500  0.000000  0.000000     0.000250
                              345:  0.172000  0.000000  0.000000     0.000250
                              346:  0.172500  0.000000  0.000000     0.000250
                              347:  0.173000  0.000000  0.000000     0.000250
                              348:  0.173500  0.000000  0.000000     0.000250
                              349:  0.174000  0.000000  0.000000     0.000250
                              350:  0.174500  0.000000  0.000000     0.000250
                              351:  0.175000  0.000000  0.000000     0.000250
                              352:  0.175500  0.000000  0.000000     0.000250
                              353:  0.176000  0.000000  0.000000     0.000250
                              354:  0.176500  0.000000  0.000000     0.000250
                              355:  0.177000  0.000000  0.000000     0.000250
                              356:  0.177500  0.000000  0.000000     0.000250
                              357:  0.178000  0.000000  0.000000     0.000250
                              358:  0.178500  0.000000  0.000000     0.000250
                              359:  0.179000  0.000000  0.000000     0.000250
                              360:  0.179500  0.000000  0.000000     0.000250
                              361:  0.180000  0.000000  0.000000     0.000250
                              362:  0.180500  0.000000  0.000000     0.000250
                              363:  0.181000  0.000000  0.000000     0.000250
                              364:  0.181500  0.000000  0.000000     0.000250
                              365:  0.182000  0.000000  0.000000     0.000250
                              366:  0.182500  0.000000  0.000000     0.000250
                              367:  0.183000  0.000000  0.000000     0.000250
                              368:  0.183500  0.000000  0.000000     0.000250
                              369:  0.184000  0.000000  0.000000     0.000250
                              370:  0.184500  0.000000  0.000000     0.000250
                              371:  0.185000  0.000000  0.000000     0.000250
                              372:  0.185500  0.000000  0.000000     0.000250
                              373:  0.186000  0.000000  0.000000     0.000250
                              374:  0.186500  0.000000  0.000000     0.000250
                              375:  0.187000  0.000000  0.000000     0.000250
                              376:  0.187500  0.000000  0.000000     0.000250
                              377:  0.188000  0.000000  0.000000     0.000250
                              378:  0.188500  0.000000  0.000000     0.000250
                              379:  0.189000  0.000000  0.000000     0.000250
                              380:  0.189500  0.000000  0.000000     0.000250
                              381:  0.190000  0.000000  0.000000     0.000250
                              382:  0.190500  0.000000  0.000000     0.000250
                              383:  0.191000  0.000000  0.000000     0.000250
                              384:  0.191500  0.000000  0.000000     0.000250
                              385:  0.192000  0.000000  0.000000     0.000250
                              386:  0.192500  0.000000  0.000000     0.000250
                              387:  0.193000  0.000000  0.000000     0.000250
                              388:  0.193500  0.000000  0.000000     0.000250
                              389:  0.194000  0.000000  0.000000     0.000250
                              390:  0.194500  0.000000  0.000000     0.000250
                              391:  0.195000  0.000000  0.000000     0.000250
                              392:  0.195500  0.000000  0.000000     0.000250
                              393:  0.196000  0.000000  0.000000     0.000250
                              394:  0.196500  0.000000  0.000000     0.000250
                              395:  0.197000  0.000000  0.000000     0.000250
                              396:  0.197500  0.000000  0.000000     0.000250
                              397:  0.198000  0.000000  0.000000     0.000250
                              398:  0.198500  0.000000  0.000000     0.000250
                              399:  0.199000  0.000000  0.000000     0.000250
                              400:  0.199500  0.000000  0.000000     0.000250
                              401:  0.200000  0.000000  0.000000     0.000250
                              402:  0.200500  0.000000  0.000000     0.000250
                              403:  0.201000  0.000000  0.000000     0.000250
                              404:  0.201500  0.000000  0.000000     0.000250
                              405:  0.202000  0.000000  0.000000     0.000250
                              406:  0.202500  0.000000  0.000000     0.000250
                              407:  0.203000  0.000000  0.000000     0.000250
                              408:  0.203500  0.000000  0.000000     0.000250
                              409:  0.204000  0.000000  0.000000     0.000250
                              410:  0.204500  0.000000  0.000000     0.000250
                              411:  0.205000  0.000000  0.000000     0.000250
                              412:  0.205500  0.000000  0.000000     0.000250
                              413:  0.206000  0.000000  0.000000     0.000250
                              414:  0.206500  0.000000  0.000000     0.000250
                              415:  0.207000  0.000000  0.000000     0.000250
                              416:  0.207500  0.000000  0.000000     0.000250
                              417:  0.208000  0.000000  0.000000     0.000250
                              418:  0.208500  0.000000  0.000000     0.000250
                              419:  0.209000  0.000000  0.000000     0.000250
                              420:  0.209500  0.000000  0.000000     0.000250
                              421:  0.210000  0.000000  0.000000     0.000250
                              422:  0.210500  0.000000  0.000000     0.000250
                              423:  0.211000  0.000000  0.000000     0.000250
                              424:  0.211500  0.000000  0.000000     0.000250
                              425:  0.212000  0.000000  0.000000     0.000250
                              426:  0.212500  0.000000  0.000000     0.000250
                              427:  0.213000  0.000000  0.000000     0.000250
                              428:  0.213500  0.000000  0.000000     0.000250
                              429:  0.214000  0.000000  0.000000     0.000250
                              430:  0.214500  0.000000  0.000000     0.000250
                              431:  0.215000  0.000000  0.000000     0.000250
                              432:  0.215500  0.000000  0.000000     0.000250
                              433:  0.216000  0.000000  0.000000     0.000250
                              434:  0.216500  0.000000  0.000000     0.000250
                              435:  0.217000  0.000000  0.000000     0.000250
                              436:  0.217500  0.000000  0.000000     0.000250
                              437:  0.218000  0.000000  0.000000     0.000250
                              438:  0.218500  0.000000  0.000000     0.000250
                              439:  0.219000  0.000000  0.000000     0.000250
                              440:  0.219500  0.000000  0.000000     0.000250
                              441:  0.220000  0.000000  0.000000     0.000250
                              442:  0.220500  0.000000  0.000000     0.000250
                              443:  0.221000  0.000000  0.000000     0.000250
                              444:  0.221500  0.000000  0.000000     0.000250
                              445:  0.222000  0.000000  0.000000     0.000250
                              446:  0.222500  0.000000  0.000000     0.000250
                              447:  0.223000  0.000000  0.000000     0.000250
                              448:  0.223500  0.000000  0.000000     0.000250
                              449:  0.224000  0.000000  0.000000     0.000250
                              450:  0.224500  0.000000  0.000000     0.000250
                              451:  0.225000  0.000000  0.000000     0.000250
                              452:  0.225500  0.000000  0.000000     0.000250
                              453:  0.226000  0.000000  0.000000     0.000250
                              454:  0.226500  0.000000  0.000000     0.000250
                              455:  0.227000  0.000000  0.000000     0.000250
                              456:  0.227500  0.000000  0.000000     0.000250
                              457:  0.228000  0.000000  0.000000     0.000250
                              458:  0.228500  0.000000  0.000000     0.000250
                              459:  0.229000  0.000000  0.000000     0.000250
                              460:  0.229500  0.000000  0.000000     0.000250
                              461:  0.230000  0.000000  0.000000     0.000250
                              462:  0.230500  0.000000  0.000000     0.000250
                              463:  0.231000  0.000000  0.000000     0.000250
                              464:  0.231500  0.000000  0.000000     0.000250
                              465:  0.232000  0.000000  0.000000     0.000250
                              466:  0.232500  0.000000  0.000000     0.000250
                              467:  0.233000  0.000000  0.000000     0.000250
                              468:  0.233500  0.000000  0.000000     0.000250
                              469:  0.234000  0.000000  0.000000     0.000250
                              470:  0.234500  0.000000  0.000000     0.000250
                              471:  0.235000  0.000000  0.000000     0.000250
                              472:  0.235500  0.000000  0.000000     0.000250
                              473:  0.236000  0.000000  0.000000     0.000250
                              474:  0.236500  0.000000  0.000000     0.000250
                              475:  0.237000  0.000000  0.000000     0.000250
                              476:  0.237500  0.000000  0.000000     0.000250
                              477:  0.238000  0.000000  0.000000     0.000250
                              478:  0.238500  0.000000  0.000000     0.000250
                              479:  0.239000  0.000000  0.000000     0.000250
                              480:  0.239500  0.000000  0.000000     0.000250
                              481:  0.240000  0.000000  0.000000     0.000250
                              482:  0.240500  0.000000  0.000000     0.000250
                              483:  0.241000  0.000000  0.000000     0.000250
                              484:  0.241500  0.000000  0.000000     0.000250
                              485:  0.242000  0.000000  0.000000     0.000250
                              486:  0.242500  0.000000  0.000000     0.000250
                              487:  0.243000  0.000000  0.000000     0.000250
                              488:  0.243500  0.000000  0.000000     0.000250
                              489:  0.244000  0.000000  0.000000     0.000250
                              490:  0.244500  0.000000  0.000000     0.000250
                              491:  0.245000  0.000000  0.000000     0.000250
                              492:  0.245500  0.000000  0.000000     0.000250
                              493:  0.246000  0.000000  0.000000     0.000250
                              494:  0.246500  0.000000  0.000000     0.000250
                              495:  0.247000  0.000000  0.000000     0.000250
                              496:  0.247500  0.000000  0.000000     0.000250
                              497:  0.248000  0.000000  0.000000     0.000250
                              498:  0.248500  0.000000  0.000000     0.000250
                              499:  0.249000  0.000000  0.000000     0.000250
                              500:  0.249500  0.000000  0.000000     0.000250
                              501:  0.250000  0.000000  0.000000     0.000250
                              502:  0.250500  0.000000  0.000000     0.000250
                              503:  0.251000  0.000000  0.000000     0.000250
                              504:  0.251500  0.000000  0.000000     0.000250
                              505:  0.252000  0.000000  0.000000     0.000250
                              506:  0.252500  0.000000  0.000000     0.000250
                              507:  0.253000  0.000000  0.000000     0.000250
                              508:  0.253500  0.000000  0.000000     0.000250
                              509:  0.254000  0.000000  0.000000     0.000250
                              510:  0.254500  0.000000  0.000000     0.000250
                              511:  0.255000  0.000000  0.000000     0.000250
                              512:  0.255500  0.000000  0.000000     0.000250
                              513:  0.256000  0.000000  0.000000     0.000250
                              514:  0.256500  0.000000  0.000000     0.000250
                              515:  0.257000  0.000000  0.000000     0.000250
                              516:  0.257500  0.000000  0.000000     0.000250
                              517:  0.258000  0.000000  0.000000     0.000250
                              518:  0.258500  0.000000  0.000000     0.000250
                              519:  0.259000  0.000000  0.000000     0.000250
                              520:  0.259500  0.000000  0.000000     0.000250
                              521:  0.260000  0.000000  0.000000     0.000250
                              522:  0.260500  0.000000  0.000000     0.000250
                              523:  0.261000  0.000000  0.000000     0.000250
                              524:  0.261500  0.000000  0.000000     0.000250
                              525:  0.262000  0.000000  0.000000     0.000250
                              526:  0.262500  0.000000  0.000000     0.000250
                              527:  0.263000  0.000000  0.000000     0.000250
                              528:  0.263500  0.000000  0.000000     0.000250
                              529:  0.264000  0.000000  0.000000     0.000250
                              530:  0.264500  0.000000  0.000000     0.000250
                              531:  0.265000  0.000000  0.000000     0.000250
                              532:  0.265500  0.000000  0.000000     0.000250
                              533:  0.266000  0.000000  0.000000     0.000250
                              534:  0.266500  0.000000  0.000000     0.000250
                              535:  0.267000  0.000000  0.000000     0.000250
                              536:  0.267500  0.000000  0.000000     0.000250
                              537:  0.268000  0.000000  0.000000     0.000250
                              538:  0.268500  0.000000  0.000000     0.000250
                              539:  0.269000  0.000000  0.000000     0.000250
                              540:  0.269500  0.000000  0.000000     0.000250
                              541:  0.270000  0.000000  0.000000     0.000250
                              542:  0.270500  0.000000  0.000000     0.000250
                              543:  0.271000  0.000000  0.000000     0.000250
                              544:  0.271500  0.000000  0.000000     0.000250
                              545:  0.272000  0.000000  0.000000     0.000250
                              546:  0.272500  0.000000  0.000000     0.000250
                              547:  0.273000  0.000000  0.000000     0.000250
                              548:  0.273500  0.000000  0.000000     0.000250
                              549:  0.274000  0.000000  0.000000     0.000250
                              550:  0.274500  0.000000  0.000000     0.000250
                              551:  0.275000  0.000000  0.000000     0.000250
                              552:  0.275500  0.000000  0.000000     0.000250
                              553:  0.276000  0.000000  0.000000     0.000250
                              554:  0.276500  0.000000  0.000000     0.000250
                              555:  0.277000  0.000000  0.000000     0.000250
                              556:  0.277500  0.000000  0.000000     0.000250
                              557:  0.278000  0.000000  0.000000     0.000250
                              558:  0.278500  0.000000  0.000000     0.000250
                              559:  0.279000  0.000000  0.000000     0.000250
                              560:  0.279500  0.000000  0.000000     0.000250
                              561:  0.280000  0.000000  0.000000     0.000250
                              562:  0.280500  0.000000  0.000000     0.000250
                              563:  0.281000  0.000000  0.000000     0.000250
                              564:  0.281500  0.000000  0.000000     0.000250
                              565:  0.282000  0.000000  0.000000     0.000250
                              566:  0.282500  0.000000  0.000000     0.000250
                              567:  0.283000  0.000000  0.000000     0.000250
                              568:  0.283500  0.000000  0.000000     0.000250
                              569:  0.284000  0.000000  0.000000     0.000250
                              570:  0.284500  0.000000  0.000000     0.000250
                              571:  0.285000  0.000000  0.000000     0.000250
                              572:  0.285500  0.000000  0.000000     0.000250
                              573:  0.286000  0.000000  0.000000     0.000250
                              574:  0.286500  0.000000  0.000000     0.000250
                              575:  0.287000  0.000000  0.000000     0.000250
                              576:  0.287500  0.000000  0.000000     0.000250
                              577:  0.288000  0.000000  0.000000     0.000250
                              578:  0.288500  0.000000  0.000000     0.000250
                              579:  0.289000  0.000000  0.000000     0.000250
                              580:  0.289500  0.000000  0.000000     0.000250
                              581:  0.290000  0.000000  0.000000     0.000250
                              582:  0.290500  0.000000  0.000000     0.000250
                              583:  0.291000  0.000000  0.000000     0.000250
                              584:  0.291500  0.000000  0.000000     0.000250
                              585:  0.292000  0.000000  0.000000     0.000250
                              586:  0.292500  0.000000  0.000000     0.000250
                              587:  0.293000  0.000000  0.000000     0.000250
                              588:  0.293500  0.000000  0.000000     0.000250
                              589:  0.294000  0.000000  0.000000     0.000250
                              590:  0.294500  0.000000  0.000000     0.000250
                              591:  0.295000  0.000000  0.000000     0.000250
                              592:  0.295500  0.000000  0.000000     0.000250
                              593:  0.296000  0.000000  0.000000     0.000250
                              594:  0.296500  0.000000  0.000000     0.000250
                              595:  0.297000  0.000000  0.000000     0.000250
                              596:  0.297500  0.000000  0.000000     0.000250
                              597:  0.298000  0.000000  0.000000     0.000250
                              598:  0.298500  0.000000  0.000000     0.000250
                              599:  0.299000  0.000000  0.000000     0.000250
                              600:  0.299500  0.000000  0.000000     0.000250
                              601:  0.300000  0.000000  0.000000     0.000250
                              602:  0.300500  0.000000  0.000000     0.000250
                              603:  0.301000  0.000000  0.000000     0.000250
                              604:  0.301500  0.000000  0.000000     0.000250
                              605:  0.302000  0.000000  0.000000     0.000250
                              606:  0.302500  0.000000  0.000000     0.000250
                              607:  0.303000  0.000000  0.000000     0.000250
                              608:  0.303500  0.000000  0.000000     0.000250
                              609:  0.304000  0.000000  0.000000     0.000250
                              610:  0.304500  0.000000  0.000000     0.000250
                              611:  0.305000  0.000000  0.000000     0.000250
                              612:  0.305500  0.000000  0.000000     0.000250
                              613:  0.306000  0.000000  0.000000     0.000250
                              614:  0.306500  0.000000  0.000000     0.000250
                              615:  0.307000  0.000000  0.000000     0.000250
                              616:  0.307500  0.000000  0.000000     0.000250
                              617:  0.308000  0.000000  0.000000     0.000250
                              618:  0.308500  0.000000  0.000000     0.000250
                              619:  0.309000  0.000000  0.000000     0.000250
                              620:  0.309500  0.000000  0.000000     0.000250
                              621:  0.310000  0.000000  0.000000     0.000250
                              622:  0.310500  0.000000  0.000000     0.000250
                              623:  0.311000  0.000000  0.000000     0.000250
                              624:  0.311500  0.000000  0.000000     0.000250
                              625:  0.312000  0.000000  0.000000     0.000250
                              626:  0.312500  0.000000  0.000000     0.000250
                              627:  0.313000  0.000000  0.000000     0.000250
                              628:  0.313500  0.000000  0.000000     0.000250
                              629:  0.314000  0.000000  0.000000     0.000250
                              630:  0.314500  0.000000  0.000000     0.000250
                              631:  0.315000  0.000000  0.000000     0.000250
                              632:  0.315500  0.000000  0.000000     0.000250
                              633:  0.316000  0.000000  0.000000     0.000250
                              634:  0.316500  0.000000  0.000000     0.000250
                              635:  0.317000  0.000000  0.000000     0.000250
                              636:  0.317500  0.000000  0.000000     0.000250
                              637:  0.318000  0.000000  0.000000     0.000250
                              638:  0.318500  0.000000  0.000000     0.000250
                              639:  0.319000  0.000000  0.000000     0.000250
                              640:  0.319500  0.000000  0.000000     0.000250
                              641:  0.320000  0.000000  0.000000     0.000250
                              642:  0.320500  0.000000  0.000000     0.000250
                              643:  0.321000  0.000000  0.000000     0.000250
                              644:  0.321500  0.000000  0.000000     0.000250
                              645:  0.322000  0.000000  0.000000     0.000250
                              646:  0.322500  0.000000  0.000000     0.000250
                              647:  0.323000  0.000000  0.000000     0.000250
                              648:  0.323500  0.000000  0.000000     0.000250
                              649:  0.324000  0.000000  0.000000     0.000250
                              650:  0.324500  0.000000  0.000000     0.000250
                              651:  0.325000  0.000000  0.000000     0.000250
                              652:  0.325500  0.000000  0.000000     0.000250
                              653:  0.326000  0.000000  0.000000     0.000250
                              654:  0.326500  0.000000  0.000000     0.000250
                              655:  0.327000  0.000000  0.000000     0.000250
                              656:  0.327500  0.000000  0.000000     0.000250
                              657:  0.328000  0.000000  0.000000     0.000250
                              658:  0.328500  0.000000  0.000000     0.000250
                              659:  0.329000  0.000000  0.000000     0.000250
                              660:  0.329500  0.000000  0.000000     0.000250
                              661:  0.330000  0.000000  0.000000     0.000250
                              662:  0.330500  0.000000  0.000000     0.000250
                              663:  0.331000  0.000000  0.000000     0.000250
                              664:  0.331500  0.000000  0.000000     0.000250
                              665:  0.332000  0.000000  0.000000     0.000250
                              666:  0.332500  0.000000  0.000000     0.000250
                              667:  0.333000  0.000000  0.000000     0.000250
                              668:  0.333500  0.000000  0.000000     0.000250
                              669:  0.334000  0.000000  0.000000     0.000250
                              670:  0.334500  0.000000  0.000000     0.000250
                              671:  0.335000  0.000000  0.000000     0.000250
                              672:  0.335500  0.000000  0.000000     0.000250
                              673:  0.336000  0.000000  0.000000     0.000250
                              674:  0.336500  0.000000  0.000000     0.000250
                              675:  0.337000  0.000000  0.000000     0.000250
                              676:  0.337500  0.000000  0.000000     0.000250
                              677:  0.338000  0.000000  0.000000     0.000250
                              678:  0.338500  0.000000  0.000000     0.000250
                              679:  0.339000  0.000000  0.000000     0.000250
                              680:  0.339500  0.000000  0.000000     0.000250
                              681:  0.340000  0.000000  0.000000     0.000250
                              682:  0.340500  0.000000  0.000000     0.000250
                              683:  0.341000  0.000000  0.000000     0.000250
                              684:  0.341500  0.000000  0.000000     0.000250
                              685:  0.342000  0.000000  0.000000     0.000250
                              686:  0.342500  0.000000  0.000000     0.000250
                              687:  0.343000  0.000000  0.000000     0.000250
                              688:  0.343500  0.000000  0.000000     0.000250
                              689:  0.344000  0.000000  0.000000     0.000250
                              690:  0.344500  0.000000  0.000000     0.000250
                              691:  0.345000  0.000000  0.000000     0.000250
                              692:  0.345500  0.000000  0.000000     0.000250
                              693:  0.346000  0.000000  0.000000     0.000250
                              694:  0.346500  0.000000  0.000000     0.000250
                              695:  0.347000  0.000000  0.000000     0.000250
                              696:  0.347500  0.000000  0.000000     0.000250
                              697:  0.348000  0.000000  0.000000     0.000250
                              698:  0.348500  0.000000  0.000000     0.000250
                              699:  0.349000  0.000000  0.000000     0.000250
                              700:  0.349500  0.000000  0.000000     0.000250
                              701:  0.350000  0.000000  0.000000     0.000250
                              702:  0.350500  0.000000  0.000000     0.000250
                              703:  0.351000  0.000000  0.000000     0.000250
                              704:  0.351500  0.000000  0.000000     0.000250
                              705:  0.352000  0.000000  0.000000     0.000250
                              706:  0.352500  0.000000  0.000000     0.000250
                              707:  0.353000  0.000000  0.000000     0.000250
                              708:  0.353500  0.000000  0.000000     0.000250
                              709:  0.354000  0.000000  0.000000     0.000250
                              710:  0.354500  0.000000  0.000000     0.000250
                              711:  0.355000  0.000000  0.000000     0.000250
                              712:  0.355500  0.000000  0.000000     0.000250
                              713:  0.356000  0.000000  0.000000     0.000250
                              714:  0.356500  0.000000  0.000000     0.000250
                              715:  0.357000  0.000000  0.000000     0.000250
                              716:  0.357500  0.000000  0.000000     0.000250
                              717:  0.358000  0.000000  0.000000     0.000250
                              718:  0.358500  0.000000  0.000000     0.000250
                              719:  0.359000  0.000000  0.000000     0.000250
                              720:  0.359500  0.000000  0.000000     0.000250
                              721:  0.360000  0.000000  0.000000     0.000250
                              722:  0.360500  0.000000  0.000000     0.000250
                              723:  0.361000  0.000000  0.000000     0.000250
                              724:  0.361500  0.000000  0.000000     0.000250
                              725:  0.362000  0.000000  0.000000     0.000250
                              726:  0.362500  0.000000  0.000000     0.000250
                              727:  0.363000  0.000000  0.000000     0.000250
                              728:  0.363500  0.000000  0.000000     0.000250
                              729:  0.364000  0.000000  0.000000     0.000250
                              730:  0.364500  0.000000  0.000000     0.000250
                              731:  0.365000  0.000000  0.000000     0.000250
                              732:  0.365500  0.000000  0.000000     0.000250
                              733:  0.366000  0.000000  0.000000     0.000250
                              734:  0.366500  0.000000  0.000000     0.000250
                              735:  0.367000  0.000000  0.000000     0.000250
                              736:  0.367500  0.000000  0.000000     0.000250
                              737:  0.368000  0.000000  0.000000     0.000250
                              738:  0.368500  0.000000  0.000000     0.000250
                              739:  0.369000  0.000000  0.000000     0.000250
                              740:  0.369500  0.000000  0.000000     0.000250
                              741:  0.370000  0.000000  0.000000     0.000250
                              742:  0.370500  0.000000  0.000000     0.000250
                              743:  0.371000  0.000000  0.000000     0.000250
                              744:  0.371500  0.000000  0.000000     0.000250
                              745:  0.372000  0.000000  0.000000     0.000250
                              746:  0.372500  0.000000  0.000000     0.000250
                              747:  0.373000  0.000000  0.000000     0.000250
                              748:  0.373500  0.000000  0.000000     0.000250
                              749:  0.374000  0.000000  0.000000     0.000250
                              750:  0.374500  0.000000  0.000000     0.000250
                              751:  0.375000  0.000000  0.000000     0.000250
                              752:  0.375500  0.000000  0.000000     0.000250
                              753:  0.376000  0.000000  0.000000     0.000250
                              754:  0.376500  0.000000  0.000000     0.000250
                              755:  0.377000  0.000000  0.000000     0.000250
                              756:  0.377500  0.000000  0.000000     0.000250
                              757:  0.378000  0.000000  0.000000     0.000250
                              758:  0.378500  0.000000  0.000000     0.000250
                              759:  0.379000  0.000000  0.000000     0.000250
                              760:  0.379500  0.000000  0.000000     0.000250
                              761:  0.380000  0.000000  0.000000     0.000250
                              762:  0.380500  0.000000  0.000000     0.000250
                              763:  0.381000  0.000000  0.000000     0.000250
                              764:  0.381500  0.000000  0.000000     0.000250
                              765:  0.382000  0.000000  0.000000     0.000250
                              766:  0.382500  0.000000  0.000000     0.000250
                              767:  0.383000  0.000000  0.000000     0.000250
                              768:  0.383500  0.000000  0.000000     0.000250
                              769:  0.384000  0.000000  0.000000     0.000250
                              770:  0.384500  0.000000  0.000000     0.000250
                              771:  0.385000  0.000000  0.000000     0.000250
                              772:  0.385500  0.000000  0.000000     0.000250
                              773:  0.386000  0.000000  0.000000     0.000250
                              774:  0.386500  0.000000  0.000000     0.000250
                              775:  0.387000  0.000000  0.000000     0.000250
                              776:  0.387500  0.000000  0.000000     0.000250
                              777:  0.388000  0.000000  0.000000     0.000250
                              778:  0.388500  0.000000  0.000000     0.000250
                              779:  0.389000  0.000000  0.000000     0.000250
                              780:  0.389500  0.000000  0.000000     0.000250
                              781:  0.390000  0.000000  0.000000     0.000250
                              782:  0.390500  0.000000  0.000000     0.000250
                              783:  0.391000  0.000000  0.000000     0.000250
                              784:  0.391500  0.000000  0.000000     0.000250
                              785:  0.392000  0.000000  0.000000     0.000250
                              786:  0.392500  0.000000  0.000000     0.000250
                              787:  0.393000  0.000000  0.000000     0.000250
                              788:  0.393500  0.000000  0.000000     0.000250
                              789:  0.394000  0.000000  0.000000     0.000250
                              790:  0.394500  0.000000  0.000000     0.000250
                              791:  0.395000  0.000000  0.000000     0.000250
                              792:  0.395500  0.000000  0.000000     0.000250
                              793:  0.396000  0.000000  0.000000     0.000250
                              794:  0.396500  0.000000  0.000000     0.000250
                              795:  0.397000  0.000000  0.000000     0.000250
                              796:  0.397500  0.000000  0.000000     0.000250
                              797:  0.398000  0.000000  0.000000     0.000250
                              798:  0.398500  0.000000  0.000000     0.000250
                              799:  0.399000  0.000000  0.000000     0.000250
                              800:  0.399500  0.000000  0.000000     0.000250
                              801:  0.400000  0.000000  0.000000     0.000250
                              802:  0.400500  0.000000  0.000000     0.000250
                              803:  0.401000  0.000000  0.000000     0.000250
                              804:  0.401500  0.000000  0.000000     0.000250
                              805:  0.402000  0.000000  0.000000     0.000250
                              806:  0.402500  0.000000  0.000000     0.000250
                              807:  0.403000  0.000000  0.000000     0.000250
                              808:  0.403500  0.000000  0.000000     0.000250
                              809:  0.404000  0.000000  0.000000     0.000250
                              810:  0.404500  0.000000  0.000000     0.000250
                              811:  0.405000  0.000000  0.000000     0.000250
                              812:  0.405500  0.000000  0.000000     0.000250
                              813:  0.406000  0.000000  0.000000     0.000250
                              814:  0.406500  0.000000  0.000000     0.000250
                              815:  0.407000  0.000000  0.000000     0.000250
                              816:  0.407500  0.000000  0.000000     0.000250
                              817:  0.408000  0.000000  0.000000     0.000250
                              818:  0.408500  0.000000  0.000000     0.000250
                              819:  0.409000  0.000000  0.000000     0.000250
                              820:  0.409500  0.000000  0.000000     0.000250
                              821:  0.410000  0.000000  0.000000     0.000250
                              822:  0.410500  0.000000  0.000000     0.000250
                              823:  0.411000  0.000000  0.000000     0.000250
                              824:  0.411500  0.000000  0.000000     0.000250
                              825:  0.412000  0.000000  0.000000     0.000250
                              826:  0.412500  0.000000  0.000000     0.000250
                              827:  0.413000  0.000000  0.000000     0.000250
                              828:  0.413500  0.000000  0.000000     0.000250
                              829:  0.414000  0.000000  0.000000     0.000250
                              830:  0.414500  0.000000  0.000000     0.000250
                              831:  0.415000  0.000000  0.000000     0.000250
                              832:  0.415500  0.000000  0.000000     0.000250
                              833:  0.416000  0.000000  0.000000     0.000250
                              834:  0.416500  0.000000  0.000000     0.000250
                              835:  0.417000  0.000000  0.000000     0.000250
                              836:  0.417500  0.000000  0.000000     0.000250
                              837:  0.418000  0.000000  0.000000     0.000250
                              838:  0.418500  0.000000  0.000000     0.000250
                              839:  0.419000  0.000000  0.000000     0.000250
                              840:  0.419500  0.000000  0.000000     0.000250
                              841:  0.420000  0.000000  0.000000     0.000250
                              842:  0.420500  0.000000  0.000000     0.000250
                              843:  0.421000  0.000000  0.000000     0.000250
                              844:  0.421500  0.000000  0.000000     0.000250
                              845:  0.422000  0.000000  0.000000     0.000250
                              846:  0.422500  0.000000  0.000000     0.000250
                              847:  0.423000  0.000000  0.000000     0.000250
                              848:  0.423500  0.000000  0.000000     0.000250
                              849:  0.424000  0.000000  0.000000     0.000250
                              850:  0.424500  0.000000  0.000000     0.000250
                              851:  0.425000  0.000000  0.000000     0.000250
                              852:  0.425500  0.000000  0.000000     0.000250
                              853:  0.426000  0.000000  0.000000     0.000250
                              854:  0.426500  0.000000  0.000000     0.000250
                              855:  0.427000  0.000000  0.000000     0.000250
                              856:  0.427500  0.000000  0.000000     0.000250
                              857:  0.428000  0.000000  0.000000     0.000250
                              858:  0.428500  0.000000  0.000000     0.000250
                              859:  0.429000  0.000000  0.000000     0.000250
                              860:  0.429500  0.000000  0.000000     0.000250
                              861:  0.430000  0.000000  0.000000     0.000250
                              862:  0.430500  0.000000  0.000000     0.000250
                              863:  0.431000  0.000000  0.000000     0.000250
                              864:  0.431500  0.000000  0.000000     0.000250
                              865:  0.432000  0.000000  0.000000     0.000250
                              866:  0.432500  0.000000  0.000000     0.000250
                              867:  0.433000  0.000000  0.000000     0.000250
                              868:  0.433500  0.000000  0.000000     0.000250
                              869:  0.434000  0.000000  0.000000     0.000250
                              870:  0.434500  0.000000  0.000000     0.000250
                              871:  0.435000  0.000000  0.000000     0.000250
                              872:  0.435500  0.000000  0.000000     0.000250
                              873:  0.436000  0.000000  0.000000     0.000250
                              874:  0.436500  0.000000  0.000000     0.000250
                              875:  0.437000  0.000000  0.000000     0.000250
                              876:  0.437500  0.000000  0.000000     0.000250
                              877:  0.438000  0.000000  0.000000     0.000250
                              878:  0.438500  0.000000  0.000000     0.000250
                              879:  0.439000  0.000000  0.000000     0.000250
                              880:  0.439500  0.000000  0.000000     0.000250
                              881:  0.440000  0.000000  0.000000     0.000250
                              882:  0.440500  0.000000  0.000000     0.000250
                              883:  0.441000  0.000000  0.000000     0.000250
                              884:  0.441500  0.000000  0.000000     0.000250
                              885:  0.442000  0.000000  0.000000     0.000250
                              886:  0.442500  0.000000  0.000000     0.000250
                              887:  0.443000  0.000000  0.000000     0.000250
                              888:  0.443500  0.000000  0.000000     0.000250
                              889:  0.444000  0.000000  0.000000     0.000250
                              890:  0.444500  0.000000  0.000000     0.000250
                              891:  0.445000  0.000000  0.000000     0.000250
                              892:  0.445500  0.000000  0.000000     0.000250
                              893:  0.446000  0.000000  0.000000     0.000250
                              894:  0.446500  0.000000  0.000000     0.000250
                              895:  0.447000  0.000000  0.000000     0.000250
                              896:  0.447500  0.000000  0.000000     0.000250
                              897:  0.448000  0.000000  0.000000     0.000250
                              898:  0.448500  0.000000  0.000000     0.000250
                              899:  0.449000  0.000000  0.000000     0.000250
                              900:  0.449500  0.000000  0.000000     0.000250
                              901:  0.450000  0.000000  0.000000     0.000250
                              902:  0.450500  0.000000  0.000000     0.000250
                              903:  0.451000  0.000000  0.000000     0.000250
                              904:  0.451500  0.000000  0.000000     0.000250
                              905:  0.452000  0.000000  0.000000     0.000250
                              906:  0.452500  0.000000  0.000000     0.000250
                              907:  0.453000  0.000000  0.000000     0.000250
                              908:  0.453500  0.000000  0.000000     0.000250
                              909:  0.454000  0.000000  0.000000     0.000250
                              910:  0.454500  0.000000  0.000000     0.000250
                              911:  0.455000  0.000000  0.000000     0.000250
                              912:  0.455500  0.000000  0.000000     0.000250
                              913:  0.456000  0.000000  0.000000     0.000250
                              914:  0.456500  0.000000  0.000000     0.000250
                              915:  0.457000  0.000000  0.000000     0.000250
                              916:  0.457500  0.000000  0.000000     0.000250
                              917:  0.458000  0.000000  0.000000     0.000250
                              918:  0.458500  0.000000  0.000000     0.000250
                              919:  0.459000  0.000000  0.000000     0.000250
                              920:  0.459500  0.000000  0.000000     0.000250
                              921:  0.460000  0.000000  0.000000     0.000250
                              922:  0.460500  0.000000  0.000000     0.000250
                              923:  0.461000  0.000000  0.000000     0.000250
                              924:  0.461500  0.000000  0.000000     0.000250
                              925:  0.462000  0.000000  0.000000     0.000250
                              926:  0.462500  0.000000  0.000000     0.000250
                              927:  0.463000  0.000000  0.000000     0.000250
                              928:  0.463500  0.000000  0.000000     0.000250
                              929:  0.464000  0.000000  0.000000     0.000250
                              930:  0.464500  0.000000  0.000000     0.000250
                              931:  0.465000  0.000000  0.000000     0.000250
                              932:  0.465500  0.000000  0.000000     0.000250
                              933:  0.466000  0.000000  0.000000     0.000250
                              934:  0.466500  0.000000  0.000000     0.000250
                              935:  0.467000  0.000000  0.000000     0.000250
                              936:  0.467500  0.000000  0.000000     0.000250
                              937:  0.468000  0.000000  0.000000     0.000250
                              938:  0.468500  0.000000  0.000000     0.000250
                              939:  0.469000  0.000000  0.000000     0.000250
                              940:  0.469500  0.000000  0.000000     0.000250
                              941:  0.470000  0.000000  0.000000     0.000250
                              942:  0.470500  0.000000  0.000000     0.000250
                              943:  0.471000  0.000000  0.000000     0.000250
                              944:  0.471500  0.000000  0.000000     0.000250
                              945:  0.472000  0.000000  0.000000     0.000250
                              946:  0.472500  0.000000  0.000000     0.000250
                              947:  0.473000  0.000000  0.000000     0.000250
                              948:  0.473500  0.000000  0.000000     0.000250
                              949:  0.474000  0.000000  0.000000     0.000250
                              950:  0.474500  0.000000  0.000000     0.000250
                              951:  0.475000  0.000000  0.000000     0.000250
                              952:  0.475500  0.000000  0.000000     0.000250
                              953:  0.476000  0.000000  0.000000     0.000250
                              954:  0.476500  0.000000  0.000000     0.000250
                              955:  0.477000  0.000000  0.000000     0.000250
                              956:  0.477500  0.000000  0.000000     0.000250
                              957:  0.478000  0.000000  0.000000     0.000250
                              958:  0.478500  0.000000  0.000000     0.000250
                              959:  0.479000  0.000000  0.000000     0.000250
                              960:  0.479500  0.000000  0.000000     0.000250
                              961:  0.480000  0.000000  0.000000     0.000250
                              962:  0.480500  0.000000  0.000000     0.000250
                              963:  0.481000  0.000000  0.000000     0.000250
                              964:  0.481500  0.000000  0.000000     0.000250
                              965:  0.482000  0.000000  0.000000     0.000250
                              966:  0.482500  0.000000  0.000000     0.000250
                              967:  0.483000  0.000000  0.000000     0.000250
                              968:  0.483500  0.000000  0.000000     0.000250
                              969:  0.484000  0.000000  0.000000     0.000250
                              970:  0.484500  0.000000  0.000000     0.000250
                              971:  0.485000  0.000000  0.000000     0.000250
                              972:  0.485500  0.000000  0.000000     0.000250
                              973:  0.486000  0.000000  0.000000     0.000250
                              974:  0.486500  0.000000  0.000000     0.000250
                              975:  0.487000  0.000000  0.000000     0.000250
                              976:  0.487500  0.000000  0.000000     0.000250
                              977:  0.488000  0.000000  0.000000     0.000250
                              978:  0.488500  0.000000  0.000000     0.000250
                              979:  0.489000  0.000000  0.000000     0.000250
                              980:  0.489500  0.000000  0.000000     0.000250
                              981:  0.490000  0.000000  0.000000     0.000250
                              982:  0.490500  0.000000  0.000000     0.000250
                              983:  0.491000  0.000000  0.000000     0.000250
                              984:  0.491500  0.000000  0.000000     0.000250
                              985:  0.492000  0.000000  0.000000     0.000250
                              986:  0.492500  0.000000  0.000000     0.000250
                              987:  0.493000  0.000000  0.000000     0.000250
                              988:  0.493500  0.000000  0.000000     0.000250
                              989:  0.494000  0.000000  0.000000     0.000250
                              990:  0.494500  0.000000  0.000000     0.000250
                              991:  0.495000  0.000000  0.000000     0.000250
                              992:  0.495500  0.000000  0.000000     0.000250
                              993:  0.496000  0.000000  0.000000     0.000250
                              994:  0.496500  0.000000  0.000000     0.000250
                              995:  0.497000  0.000000  0.000000     0.000250
                              996:  0.497500  0.000000  0.000000     0.000250
                              997:  0.498000  0.000000  0.000000     0.000250
                              998:  0.498500  0.000000  0.000000     0.000250
[...]
                             3711:  0.000000  0.017046 -0.000000
                             3712:  0.000000  0.016987 -0.000000
                             3713:  0.000000  0.016928 -0.000000
                             3714:  0.000000  0.016869 -0.000000
                             3715:  0.000000  0.016811 -0.000000
                             3716:  0.000000  0.016752 -0.000000
                             3717:  0.000000  0.016693 -0.000000
                             3718:  0.000000  0.016634 -0.000000
                             3719:  0.000000  0.016576 -0.000000
                             3720:  0.000000  0.016517 -0.000000
                             3721:  0.000000  0.016458 -0.000000
                             3722:  0.000000  0.016399 -0.000000
                             3723:  0.000000  0.016340 -0.000000
                             3724:  0.000000  0.016282 -0.000000
                             3725:  0.000000  0.016223 -0.000000
                             3726:  0.000000  0.016164 -0.000000
                             3727:  0.000000  0.016105 -0.000000
                             3728:  0.000000  0.016046 -0.000000
                             3729:  0.000000  0.015988 -0.000000
                             3730:  0.000000  0.015929 -0.000000
                             3731:  0.000000  0.015870 -0.000000
                             3732:  0.000000  0.015811 -0.000000
                             3733:  0.000000  0.015753 -0.000000
                             3734:  0.000000  0.015694 -0.000000
                             3735:  0.000000  0.015635 -0.000000
                             3736:  0.000000  0.015576 -0.000000
                             3737:  0.000000  0.015517 -0.000000
                             3738:  0.000000  0.015459 -0.000000
                             3739:  0.000000  0.015400 -0.000000
                             3740:  0.000000  0.015341 -0.000000
                             3741:  0.000000  0.015282 -0.000000
                             3742:  0.000000  0.015224 -0.000000
                             3743:  0.000000  0.015165 -0.000000
                             3744:  0.000000  0.015106 -0.000000
                             3745:  0.000000  0.015047 -0.000000
                             3746:  0.000000  0.014988 -0.000000
                             3747:  0.000000  0.014930 -0.000000
                             3748:  0.000000  0.014871 -0.000000
                             3749:  0.000000  0.014812 -0.000000
                             3750:  0.000000  0.014753 -0.000000
                             3751:  0.000000  0.014695 -0.000000
                             3752:  0.000000  0.014636 -0.000000
                             3753:  0.000000  0.014577 -0.000000
                             3754:  0.000000  0.014518 -0.000000
                             3755:  0.000000  0.014459 -0.000000
                             3756:  0.000000  0.014401 -0.000000
                             3757:  0.000000  0.014342 -0.000000
                             3758:  0.000000  0.014283 -0.000000
                             3759:  0.000000  0.014224 -0.000000
                             3760:  0.000000  0.014166 -0.000000
                             3761:  0.000000  0.014107 -0.000000
                             3762:  0.000000  0.014048 -0.000000
                             3763:  0.000000  0.013989 -0.000000
                             3764:  0.000000  0.013930 -0.000000
                             3765:  0.000000  0.013872 -0.000000
                             3766:  0.000000  0.013813 -0.000000
                             3767:  0.000000  0.013754 -0.000000
                             3768:  0.000000  0.013695 -0.000000
                             3769:  0.000000  0.013637 -0.000000
                             3770:  0.000000  0.013578 -0.000000
                             3771:  0.000000  0.013519 -0.000000
                             3772:  0.000000  0.013460 -0.000000
                             3773:  0.000000  0.013401 -0.000000
                             3774:  0.000000  0.013343 -0.000000
                             3775:  0.000000  0.013284 -0.000000
                             3776:  0.000000  0.013225 -0.000000
                             3777:  0.000000  0.013166 -0.000000
                             3778:  0.000000  0.013108 -0.000000
                             3779:  0.000000  0.013049 -0.000000
                             3780:  0.000000  0.012990 -0.000000
                             3781:  0.000000  0.012931 -0.000000
                             3782:  0.000000  0.012872 -0.000000
                             3783:  0.000000  0.012814 -0.000000
                             3784:  0.000000  0.012755 -0.000000
                             3785:  0.000000  0.012696 -0.000000
                             3786:  0.000000  0.012637 -0.000000
                             3787:  0.000000  0.012579 -0.000000
                             3788:  0.000000  0.012520 -0.000000
                             3789:  0.000000  0.012461 -0.000000
                             3790:  0.000000  0.012402 -0.000000
                             3791:  0.000000  0.012343 -0.000000
                             3792:  0.000000  0.012285 -0.000000
                             3793:  0.000000  0.012226 -0.000000
                             3794:  0.000000  0.012167 -0.000000
                             3795:  0.000000  0.012108 -0.000000
                             3796:  0.000000  0.012050 -0.000000
                             3797:  0.000000  0.011991 -0.000000
                             3798:  0.000000  0.011932 -0.000000
                             3799:  0.000000  0.011873 -0.000000
                             3800:  0.000000  0.011814 -0.000000
                             3801:  0.000000  0.011756 -0.000000
                             3802:  0.000000  0.011697 -0.000000
                             3803:  0.000000  0.011638 -0.000000
                             3804:  0.000000  0.011579 -0.000000
                             3805:  0.000000  0.011521 -0.000000
                             3806:  0.000000  0.011462 -0.000000
                             3807:  0.000000  0.011403 -0.000000
                             3808:  0.000000  0.011344 -0.000000
                             3809:  0.000000  0.011285 -0.000000
                             3810:  0.000000  0.011227 -0.000000
                             3811:  0.000000  0.011168 -0.000000
                             3812:  0.000000  0.011109 -0.000000
                             3813:  0.000000  0.011050 -0.000000
                             3814:  0.000000  0.010992 -0.000000
                             3815:  0.000000  0.010933 -0.000000
                             3816:  0.000000  0.010874 -0.000000
                             3817:  0.000000  0.010815 -0.000000
                             3818:  0.000000  0.010756 -0.000000
                             3819:  0.000000  0.010698 -0.000000
                             3820:  0.000000  0.010639 -0.000000
                             3821:  0.000000  0.010580 -0.000000
                             3822:  0.000000  0.010521 -0.000000
                             3823:  0.000000  0.010463 -0.000000
                             3824:  0.000000  0.010404 -0.000000
                             3825:  0.000000  0.010345 -0.000000
                             3826:  0.000000  0.010286 -0.000000
                             3827:  0.000000  0.010227 -0.000000
                             3828:  0.000000  0.010169 -0.000000
                             3829:  0.000000  0.010110 -0.000000
                             3830:  0.000000  0.010051 -0.000000
                             3831:  0.000000  0.009992 -0.000000
                             3832:  0.000000  0.009934 -0.000000
                             3833:  0.000000  0.009875 -0.000000
                             3834:  0.000000  0.009816 -0.000000
                             3835:  0.000000  0.009757 -0.000000
                             3836:  0.000000  0.009698 -0.000000
                             3837:  0.000000  0.009640 -0.000000
                             3838:  0.000000  0.009581 -0.000000
                             3839:  0.000000  0.009522 -0.000000
                             3840:  0.000000  0.009463 -0.000000
                             3841:  0.000000  0.009405 -0.000000
                             3842:  0.000000  0.009346 -0.000000
                             3843:  0.000000  0.009287 -0.000000
                             3844:  0.000000  0.009228 -0.000000
                             3845:  0.000000  0.009169 -0.000000
                             3846:  0.000000  0.009111 -0.000000
                             3847:  0.000000  0.009052 -0.000000
                             3848:  0.000000  0.008993 -0.000000
                             3849:  0.000000  0.008934 -0.000000
                             3850:  0.000000  0.008876 -0.000000
                             3851:  0.000000  0.008817 -0.000000
                             3852:  0.000000  0.008758 -0.000000
                             3853:  0.000000  0.008699 -0.000000
                             3854:  0.000000  0.008640 -0.000000
                             3855:  0.000000  0.008582 -0.000000
                             3856:  0.000000  0.008523 -0.000000
                             3857:  0.000000  0.008464 -0.000000
                             3858:  0.000000  0.008405 -0.000000
                             3859:  0.000000  0.008347 -0.000000
                             3860:  0.000000  0.008288 -0.000000
                             3861:  0.000000  0.008229 -0.000000
                             3862:  0.000000  0.008170 -0.000000
                             3863:  0.000000  0.008111 -0.000000
                             3864:  0.000000  0.008053 -0.000000
                             3865:  0.000000  0.007994 -0.000000
                             3866:  0.000000  0.007935 -0.000000
                             3867:  0.000000  0.007876 -0.000000
                             3868:  0.000000  0.007818 -0.000000
                             3869:  0.000000  0.007759 -0.000000
                             3870:  0.000000  0.007700 -0.000000
                             3871:  0.000000  0.007641 -0.000000
                             3872:  0.000000  0.007582 -0.000000
                             3873:  0.000000  0.007524 -0.000000
                             3874:  0.000000  0.007465 -0.000000
                             3875:  0.000000  0.007406 -0.000000
                             3876:  0.000000  0.007347 -0.000000
                             3877:  0.000000  0.007289 -0.000000
                             3878:  0.000000  0.007230 -0.000000
                             3879:  0.000000  0.007171 -0.000000
                             3880:  0.000000  0.007112 -0.000000
                             3881:  0.000000  0.007053 -0.000000
                             3882:  0.000000  0.006995 -0.000000
                             3883:  0.000000  0.006936 -0.000000
                             3884:  0.000000  0.006877 -0.000000
                             3885:  0.000000  0.006818 -0.000000
                             3886:  0.000000  0.006760 -0.000000
                             3887:  0.000000  0.006701 -0.000000
                             3888:  0.000000  0.006642 -0.000000
                             3889:  0.000000  0.006583 -0.000000
                             3890:  0.000000  0.006524 -0.000000
                             3891:  0.000000  0.006466 -0.000000
                             3892:  0.000000  0.006407 -0.000000
                             3893:  0.000000  0.006348 -0.000000
                             3894:  0.000000  0.006289 -0.000000
                             3895:  0.000000  0.006231 -0.000000
                             3896:  0.000000  0.006172 -0.000000
                             3897:  0.000000  0.006113 -0.000000
                             3898:  0.000000  0.006054 -0.000000
                             3899:  0.000000  0.005995 -0.000000
                             3900:  0.000000  0.005937 -0.000000
                             3901:  0.000000  0.005878 -0.000000
                             3902:  0.000000  0.005819 -0.000000
                             3903:  0.000000  0.005760 -0.000000
                             3904:  0.000000  0.005702 -0.000000
                             3905:  0.000000  0.005643 -0.000000
                             3906:  0.000000  0.005584 -0.000000
                             3907:  0.000000  0.005525 -0.000000
                             3908:  0.000000  0.005466 -0.000000
                             3909:  0.000000  0.005408 -0.000000
                             3910:  0.000000  0.005349 -0.000000
                             3911:  0.000000  0.005290 -0.000000
                             3912:  0.000000  0.005231 -0.000000
                             3913:  0.000000  0.005172 -0.000000
                             3914:  0.000000  0.005114 -0.000000
                             3915:  0.000000  0.005055 -0.000000
                             3916:  0.000000  0.004996 -0.000000
                             3917:  0.000000  0.004937 -0.000000
                             3918:  0.000000  0.004879 -0.000000
                             3919:  0.000000  0.004820 -0.000000
                             3920:  0.000000  0.004761 -0.000000
                             3921:  0.000000  0.004702 -0.000000
                             3922:  0.000000  0.004643 -0.000000
                             3923:  0.000000  0.004585 -0.000000
                             3924:  0.000000  0.004526 -0.000000
                             3925:  0.000000  0.004467 -0.000000
                             3926:  0.000000  0.004408 -0.000000
                             3927:  0.000000  0.004350 -0.000000
                             3928:  0.000000  0.004291 -0.000000
                             3929:  0.000000  0.004232 -0.000000
                             3930:  0.000000  0.004173 -0.000000
                             3931:  0.000000  0.004114 -0.000000
                             3932:  0.000000  0.004056 -0.000000
                             3933:  0.000000  0.003997 -0.000000
                             3934:  0.000000  0.003938 -0.000000
                             3935:  0.000000  0.003879 -0.000000
                             3936:  0.000000  0.003821 -0.000000
                             3937:  0.000000  0.003762 -0.000000
                             3938:  0.000000  0.003703 -0.000000
                             3939:  0.000000  0.003644 -0.000000
                             3940:  0.000000  0.003585 -0.000000
                             3941:  0.000000  0.003527 -0.000000
                             3942:  0.000000  0.003468 -0.000000
                             3943:  0.000000  0.003409 -0.000000
                             3944:  0.000000  0.003350 -0.000000
                             3945:  0.000000  0.003292 -0.000000
                             3946:  0.000000  0.003233 -0.000000
                             3947:  0.000000  0.003174 -0.000000
                             3948:  0.000000  0.003115 -0.000000
                             3949:  0.000000  0.003056 -0.000000
                             3950:  0.000000  0.002998 -0.000000
                             3951:  0.000000  0.002939 -0.000000
                             3952:  0.000000  0.002880 -0.000000
                             3953:  0.000000  0.002821 -0.000000
                             3954:  0.000000  0.002763 -0.000000
                             3955:  0.000000  0.002704 -0.000000
                             3956:  0.000000  0.002645 -0.000000
                             3957:  0.000000  0.002586 -0.000000
                             3958:  0.000000  0.002527 -0.000000
                             3959:  0.000000  0.002469 -0.000000
                             3960:  0.000000  0.002410 -0.000000
                             3961:  0.000000  0.002351 -0.000000
                             3962:  0.000000  0.002292 -0.000000
                             3963:  0.000000  0.002234 -0.000000
                             3964:  0.000000  0.002175 -0.000000
                             3965:  0.000000  0.002116 -0.000000
                             3966:  0.000000  0.002057 -0.000000
                             3967:  0.000000  0.001998 -0.000000
                             3968:  0.000000  0.001940 -0.000000
                             3969:  0.000000  0.001881 -0.000000
                             3970:  0.000000  0.001822 -0.000000
                             3971:  0.000000  0.001763 -0.000000
                             3972:  0.000000  0.001705 -0.000000
                             3973:  0.000000  0.001646 -0.000000
                             3974:  0.000000  0.001587 -0.000000
                             3975:  0.000000  0.001528 -0.000000
                             3976:  0.000000  0.001469 -0.000000
                             3977:  0.000000  0.001411 -0.000000
                             3978:  0.000000  0.001352 -0.000000
                             3979:  0.000000  0.001293 -0.000000
                             3980:  0.000000  0.001234 -0.000000
                             3981:  0.000000  0.001176 -0.000000
                             3982:  0.000000  0.001117 -0.000000
                             3983:  0.000000  0.001058 -0.000000
                             3984:  0.000000  0.000999 -0.000000
                             3985:  0.000000  0.000940 -0.000000
                             3986:  0.000000  0.000882 -0.000000
                             3987:  0.000000  0.000823 -0.000000
                             3988:  0.000000  0.000764 -0.000000
                             3989:  0.000000  0.000705 -0.000000
                             3990:  0.000000  0.000647 -0.000000
                             3991:  0.000000  0.000588 -0.000000
                             3992:  0.000000  0.000529 -0.000000
                             3993:  0.000000  0.000470 -0.000000
                             3994:  0.000000  0.000411 -0.000000
                             3995:  0.000000  0.000353 -0.000000
                             3996:  0.000000  0.000294 -0.000000
                             3997:  0.000000  0.000235 -0.000000
                             3998:  0.000000  0.000176 -0.000000
                             3999:  0.000000  0.000118 -0.000000
                             4000:  0.000000  0.000059 -0.000000
                             4001:  0.000000  0.000000  0.000000

Extra options:
                             Mulliken analysis

--------------------------------------------------------------------------------

***  Geometry step: 0

 iSCC Total electronic   Diff electronic      SCC error    
    1    0.00000000E+00    0.00000000E+00    0.12548920E-01
WARNING!
-> SCC is NOT converged, maximal SCC iterations exceeded

--------------------------------------------------------------------------------
DFTB+ running times                          cpu [s]             wall clock [s]
--------------------------------------------------------------------------------
Global initialisation                  +       0.07 (  0.7%)       0.08 (  2.6%)
SCC                                    +       9.78 ( 99.2%)       2.77 ( 97.1%)
--------------------------------------------------------------------------------
Missing                                +       0.00 (  0.0%)       0.01 (  0.3%)
Total                                  =       9.86 (100.0%)       2.86 (100.0%)
--------------------------------------------------------------------------------
