    6
** Geometry step: 60, Lattice step: 6
    C      3.07997240      3.78428221     20.65596284      4.01006618
    C      0.76262033      0.71718141     20.65596380      4.01006618
    C      3.07997240      0.71718140     20.65596316      4.01006619
    C      0.76262033      3.78428222     20.65596350      4.01006619
    C      1.92129637      2.98036563     20.65596344      3.97986763
    C      1.92129636      1.52109799     20.65596378      3.97986763
