|===============================================================================
|
|  DFTB+ release 22.1
|
|  Copyright (C) 2006 - 2022  DFTB+ developers group
|
|===============================================================================
|
|  When publishing results obtained with DFTB+, please cite the following
|  reference:
|
|  * DFTB+, a software package for efficient approximate density functional
|    theory based atomistic simulations, J. Chem. Phys. 152, 124101 (2020).
|    [doi: 10.1063/1.5143190]
|
|  You should also cite additional publications crediting the parametrization
|  data you use. Please consult the documentation of the SK-files for the
|  references.
|
|===============================================================================

Reading input file 'dftb_in.hsd'
Parser version: 11

--------------------------------------------------------------------------------
Reading SK-files:
/Users/marceloalvesferreira/Desktop/recipes2/slakos/download/mio/mio-1-1/C-C.skf
Done.
WARNING!
-> This driver is deprecated and will be removed in future versions.
Please use the GeometryOptimization driver instead.
Path: dftbplusinput/Driver/ConjugateGradient
Line: 5-14 (File: dftb_in.hsd)



Processed input in HSD format written to 'dftb_pin.hsd'

Starting initialization...
--------------------------------------------------------------------------------
WARNING!
-> Dipole printed for extended system : value printed is not well defined
OpenMP threads:              4
Chosen random seed:          1031162757
Mode:                        Conjugate gradient relaxation
Self consistent charges:     Yes
SCC-tolerance:                 0.100000E-04
Max. scc iterations:                   5000
Shell resolved Hubbard:      No
Spin polarisation:           No
Nr. of up electrons:            12.000000
Nr. of down electrons:          12.000000
Periodic boundaries:         Yes
Lattice optimisation:        Yes
Pressure:                        0.000000
Electronic solver:           Relatively robust
Mixer:                       Broyden mixer
Mixing parameter:                  0.200000
Maximal SCC-cycles:                    5000
Nr. of chrg. vec. in memory:           5000
Nr. of moved atoms:                       6
Max. nr. of geometry steps:            5000
Force tolerance:               0.100000E-03
Electronic temperature:              0.950045E-03 H      0.258520E-01 eV
Initial charges:             Set automatically (system chrg:   0.000E+00)
Included shells:             C:  s, p
K-points and weights:           1:  0.020833  0.020833  0.000000     0.003472
                                2:  0.020833  0.062500  0.000000     0.003472
                                3:  0.020833  0.104167  0.000000     0.003472
                                4:  0.020833  0.145833  0.000000     0.003472
                                5:  0.020833  0.187500  0.000000     0.003472
                                6:  0.020833  0.229167  0.000000     0.003472
                                7:  0.020833  0.270833  0.000000     0.003472
                                8:  0.020833  0.312500  0.000000     0.003472
                                9:  0.020833  0.354167  0.000000     0.003472
                               10:  0.020833  0.395833  0.000000     0.003472
                               11:  0.020833  0.437500  0.000000     0.003472
                               12:  0.020833  0.479167  0.000000     0.003472
                               13:  0.020833  0.520833  0.000000     0.003472
                               14:  0.020833  0.562500  0.000000     0.003472
                               15:  0.020833  0.604167  0.000000     0.003472
                               16:  0.020833  0.645833  0.000000     0.003472
                               17:  0.020833  0.687500  0.000000     0.003472
                               18:  0.020833  0.729167  0.000000     0.003472
                               19:  0.020833  0.770833  0.000000     0.003472
                               20:  0.020833  0.812500  0.000000     0.003472
                               21:  0.020833  0.854167  0.000000     0.003472
                               22:  0.020833  0.895833  0.000000     0.003472
                               23:  0.020833  0.937500  0.000000     0.003472
                               24:  0.020833  0.979167  0.000000     0.003472
                               25:  0.062500  0.020833  0.000000     0.003472
                               26:  0.062500  0.062500  0.000000     0.003472
                               27:  0.062500  0.104167  0.000000     0.003472
                               28:  0.062500  0.145833  0.000000     0.003472
                               29:  0.062500  0.187500  0.000000     0.003472
                               30:  0.062500  0.229167  0.000000     0.003472
                               31:  0.062500  0.270833  0.000000     0.003472
                               32:  0.062500  0.312500  0.000000     0.003472
                               33:  0.062500  0.354167  0.000000     0.003472
                               34:  0.062500  0.395833  0.000000     0.003472
                               35:  0.062500  0.437500  0.000000     0.003472
                               36:  0.062500  0.479167  0.000000     0.003472
                               37:  0.062500  0.520833  0.000000     0.003472
                               38:  0.062500  0.562500  0.000000     0.003472
                               39:  0.062500  0.604167  0.000000     0.003472
                               40:  0.062500  0.645833  0.000000     0.003472
                               41:  0.062500  0.687500  0.000000     0.003472
                               42:  0.062500  0.729167  0.000000     0.003472
                               43:  0.062500  0.770833  0.000000     0.003472
                               44:  0.062500  0.812500  0.000000     0.003472
                               45:  0.062500  0.854167  0.000000     0.003472
                               46:  0.062500  0.895833  0.000000     0.003472
                               47:  0.062500  0.937500  0.000000     0.003472
                               48:  0.062500  0.979167  0.000000     0.003472
                               49:  0.104167  0.020833  0.000000     0.003472
                               50:  0.104167  0.062500  0.000000     0.003472
                               51:  0.104167  0.104167  0.000000     0.003472
                               52:  0.104167  0.145833  0.000000     0.003472
                               53:  0.104167  0.187500  0.000000     0.003472
                               54:  0.104167  0.229167  0.000000     0.003472
                               55:  0.104167  0.270833  0.000000     0.003472
                               56:  0.104167  0.312500  0.000000     0.003472
                               57:  0.104167  0.354167  0.000000     0.003472
                               58:  0.104167  0.395833  0.000000     0.003472
                               59:  0.104167  0.437500  0.000000     0.003472
                               60:  0.104167  0.479167  0.000000     0.003472
                               61:  0.104167  0.520833  0.000000     0.003472
                               62:  0.104167  0.562500  0.000000     0.003472
                               63:  0.104167  0.604167  0.000000     0.003472
                               64:  0.104167  0.645833  0.000000     0.003472
                               65:  0.104167  0.687500  0.000000     0.003472
                               66:  0.104167  0.729167  0.000000     0.003472
                               67:  0.104167  0.770833  0.000000     0.003472
                               68:  0.104167  0.812500  0.000000     0.003472
                               69:  0.104167  0.854167  0.000000     0.003472
                               70:  0.104167  0.895833  0.000000     0.003472
                               71:  0.104167  0.937500  0.000000     0.003472
                               72:  0.104167  0.979167  0.000000     0.003472
                               73:  0.145833  0.020833  0.000000     0.003472
                               74:  0.145833  0.062500  0.000000     0.003472
                               75:  0.145833  0.104167  0.000000     0.003472
                               76:  0.145833  0.145833  0.000000     0.003472
                               77:  0.145833  0.187500  0.000000     0.003472
                               78:  0.145833  0.229167  0.000000     0.003472
                               79:  0.145833  0.270833  0.000000     0.003472
                               80:  0.145833  0.312500  0.000000     0.003472
                               81:  0.145833  0.354167  0.000000     0.003472
                               82:  0.145833  0.395833  0.000000     0.003472
                               83:  0.145833  0.437500  0.000000     0.003472
                               84:  0.145833  0.479167  0.000000     0.003472
                               85:  0.145833  0.520833  0.000000     0.003472
                               86:  0.145833  0.562500  0.000000     0.003472
                               87:  0.145833  0.604167  0.000000     0.003472
                               88:  0.145833  0.645833  0.000000     0.003472
                               89:  0.145833  0.687500  0.000000     0.003472
                               90:  0.145833  0.729167  0.000000     0.003472
                               91:  0.145833  0.770833  0.000000     0.003472
                               92:  0.145833  0.812500  0.000000     0.003472
                               93:  0.145833  0.854167  0.000000     0.003472
                               94:  0.145833  0.895833  0.000000     0.003472
                               95:  0.145833  0.937500  0.000000     0.003472
                               96:  0.145833  0.979167  0.000000     0.003472
                               97:  0.187500  0.020833  0.000000     0.003472
                               98:  0.187500  0.062500  0.000000     0.003472
                               99:  0.187500  0.104167  0.000000     0.003472
                              100:  0.187500  0.145833  0.000000     0.003472
                              101:  0.187500  0.187500  0.000000     0.003472
                              102:  0.187500  0.229167  0.000000     0.003472
                              103:  0.187500  0.270833  0.000000     0.003472
                              104:  0.187500  0.312500  0.000000     0.003472
                              105:  0.187500  0.354167  0.000000     0.003472
                              106:  0.187500  0.395833  0.000000     0.003472
                              107:  0.187500  0.437500  0.000000     0.003472
                              108:  0.187500  0.479167  0.000000     0.003472
                              109:  0.187500  0.520833  0.000000     0.003472
                              110:  0.187500  0.562500  0.000000     0.003472
                              111:  0.187500  0.604167  0.000000     0.003472
                              112:  0.187500  0.645833  0.000000     0.003472
                              113:  0.187500  0.687500  0.000000     0.003472
                              114:  0.187500  0.729167  0.000000     0.003472
                              115:  0.187500  0.770833  0.000000     0.003472
                              116:  0.187500  0.812500  0.000000     0.003472
                              117:  0.187500  0.854167  0.000000     0.003472
                              118:  0.187500  0.895833  0.000000     0.003472
                              119:  0.187500  0.937500  0.000000     0.003472
                              120:  0.187500  0.979167  0.000000     0.003472
                              121:  0.229167  0.020833  0.000000     0.003472
                              122:  0.229167  0.062500  0.000000     0.003472
                              123:  0.229167  0.104167  0.000000     0.003472
                              124:  0.229167  0.145833  0.000000     0.003472
                              125:  0.229167  0.187500  0.000000     0.003472
                              126:  0.229167  0.229167  0.000000     0.003472
                              127:  0.229167  0.270833  0.000000     0.003472
                              128:  0.229167  0.312500  0.000000     0.003472
                              129:  0.229167  0.354167  0.000000     0.003472
                              130:  0.229167  0.395833  0.000000     0.003472
                              131:  0.229167  0.437500  0.000000     0.003472
                              132:  0.229167  0.479167  0.000000     0.003472
                              133:  0.229167  0.520833  0.000000     0.003472
                              134:  0.229167  0.562500  0.000000     0.003472
                              135:  0.229167  0.604167  0.000000     0.003472
                              136:  0.229167  0.645833  0.000000     0.003472
                              137:  0.229167  0.687500  0.000000     0.003472
                              138:  0.229167  0.729167  0.000000     0.003472
                              139:  0.229167  0.770833  0.000000     0.003472
                              140:  0.229167  0.812500  0.000000     0.003472
                              141:  0.229167  0.854167  0.000000     0.003472
                              142:  0.229167  0.895833  0.000000     0.003472
                              143:  0.229167  0.937500  0.000000     0.003472
                              144:  0.229167  0.979167  0.000000     0.003472
                              145:  0.270833  0.020833  0.000000     0.003472
                              146:  0.270833  0.062500  0.000000     0.003472
                              147:  0.270833  0.104167  0.000000     0.003472
                              148:  0.270833  0.145833  0.000000     0.003472
                              149:  0.270833  0.187500  0.000000     0.003472
                              150:  0.270833  0.229167  0.000000     0.003472
                              151:  0.270833  0.270833  0.000000     0.003472
                              152:  0.270833  0.312500  0.000000     0.003472
                              153:  0.270833  0.354167  0.000000     0.003472
                              154:  0.270833  0.395833  0.000000     0.003472
                              155:  0.270833  0.437500  0.000000     0.003472
                              156:  0.270833  0.479167  0.000000     0.003472
                              157:  0.270833  0.520833  0.000000     0.003472
                              158:  0.270833  0.562500  0.000000     0.003472
                              159:  0.270833  0.604167  0.000000     0.003472
                              160:  0.270833  0.645833  0.000000     0.003472
                              161:  0.270833  0.687500  0.000000     0.003472
                              162:  0.270833  0.729167  0.000000     0.003472
                              163:  0.270833  0.770833  0.000000     0.003472
                              164:  0.270833  0.812500  0.000000     0.003472
                              165:  0.270833  0.854167  0.000000     0.003472
                              166:  0.270833  0.895833  0.000000     0.003472
                              167:  0.270833  0.937500  0.000000     0.003472
                              168:  0.270833  0.979167  0.000000     0.003472
                              169:  0.312500  0.020833  0.000000     0.003472
                              170:  0.312500  0.062500  0.000000     0.003472
                              171:  0.312500  0.104167  0.000000     0.003472
                              172:  0.312500  0.145833  0.000000     0.003472
                              173:  0.312500  0.187500  0.000000     0.003472
                              174:  0.312500  0.229167  0.000000     0.003472
                              175:  0.312500  0.270833  0.000000     0.003472
                              176:  0.312500  0.312500  0.000000     0.003472
                              177:  0.312500  0.354167  0.000000     0.003472
                              178:  0.312500  0.395833  0.000000     0.003472
                              179:  0.312500  0.437500  0.000000     0.003472
                              180:  0.312500  0.479167  0.000000     0.003472
                              181:  0.312500  0.520833  0.000000     0.003472
                              182:  0.312500  0.562500  0.000000     0.003472
                              183:  0.312500  0.604167  0.000000     0.003472
                              184:  0.312500  0.645833  0.000000     0.003472
                              185:  0.312500  0.687500  0.000000     0.003472
                              186:  0.312500  0.729167  0.000000     0.003472
                              187:  0.312500  0.770833  0.000000     0.003472
                              188:  0.312500  0.812500  0.000000     0.003472
                              189:  0.312500  0.854167  0.000000     0.003472
                              190:  0.312500  0.895833  0.000000     0.003472
                              191:  0.312500  0.937500  0.000000     0.003472
                              192:  0.312500  0.979167  0.000000     0.003472
                              193:  0.354167  0.020833  0.000000     0.003472
                              194:  0.354167  0.062500  0.000000     0.003472
                              195:  0.354167  0.104167  0.000000     0.003472
                              196:  0.354167  0.145833  0.000000     0.003472
                              197:  0.354167  0.187500  0.000000     0.003472
                              198:  0.354167  0.229167  0.000000     0.003472
                              199:  0.354167  0.270833  0.000000     0.003472
                              200:  0.354167  0.312500  0.000000     0.003472
                              201:  0.354167  0.354167  0.000000     0.003472
                              202:  0.354167  0.395833  0.000000     0.003472
                              203:  0.354167  0.437500  0.000000     0.003472
                              204:  0.354167  0.479167  0.000000     0.003472
                              205:  0.354167  0.520833  0.000000     0.003472
                              206:  0.354167  0.562500  0.000000     0.003472
                              207:  0.354167  0.604167  0.000000     0.003472
                              208:  0.354167  0.645833  0.000000     0.003472
                              209:  0.354167  0.687500  0.000000     0.003472
                              210:  0.354167  0.729167  0.000000     0.003472
                              211:  0.354167  0.770833  0.000000     0.003472
                              212:  0.354167  0.812500  0.000000     0.003472
                              213:  0.354167  0.854167  0.000000     0.003472
                              214:  0.354167  0.895833  0.000000     0.003472
                              215:  0.354167  0.937500  0.000000     0.003472
                              216:  0.354167  0.979167  0.000000     0.003472
                              217:  0.395833  0.020833  0.000000     0.003472
                              218:  0.395833  0.062500  0.000000     0.003472
                              219:  0.395833  0.104167  0.000000     0.003472
                              220:  0.395833  0.145833  0.000000     0.003472
                              221:  0.395833  0.187500  0.000000     0.003472
                              222:  0.395833  0.229167  0.000000     0.003472
                              223:  0.395833  0.270833  0.000000     0.003472
                              224:  0.395833  0.312500  0.000000     0.003472
                              225:  0.395833  0.354167  0.000000     0.003472
                              226:  0.395833  0.395833  0.000000     0.003472
                              227:  0.395833  0.437500  0.000000     0.003472
                              228:  0.395833  0.479167  0.000000     0.003472
                              229:  0.395833  0.520833  0.000000     0.003472
                              230:  0.395833  0.562500  0.000000     0.003472
                              231:  0.395833  0.604167  0.000000     0.003472
                              232:  0.395833  0.645833  0.000000     0.003472
                              233:  0.395833  0.687500  0.000000     0.003472
                              234:  0.395833  0.729167  0.000000     0.003472
                              235:  0.395833  0.770833  0.000000     0.003472
                              236:  0.395833  0.812500  0.000000     0.003472
                              237:  0.395833  0.854167  0.000000     0.003472
                              238:  0.395833  0.895833  0.000000     0.003472
                              239:  0.395833  0.937500  0.000000     0.003472
                              240:  0.395833  0.979167  0.000000     0.003472
                              241:  0.437500  0.020833  0.000000     0.003472
                              242:  0.437500  0.062500  0.000000     0.003472
                              243:  0.437500  0.104167  0.000000     0.003472
                              244:  0.437500  0.145833  0.000000     0.003472
                              245:  0.437500  0.187500  0.000000     0.003472
                              246:  0.437500  0.229167  0.000000     0.003472
                              247:  0.437500  0.270833  0.000000     0.003472
                              248:  0.437500  0.312500  0.000000     0.003472
                              249:  0.437500  0.354167  0.000000     0.003472
                              250:  0.437500  0.395833  0.000000     0.003472
                              251:  0.437500  0.437500  0.000000     0.003472
                              252:  0.437500  0.479167  0.000000     0.003472
                              253:  0.437500  0.520833  0.000000     0.003472
                              254:  0.437500  0.562500  0.000000     0.003472
                              255:  0.437500  0.604167  0.000000     0.003472
                              256:  0.437500  0.645833  0.000000     0.003472
                              257:  0.437500  0.687500  0.000000     0.003472
                              258:  0.437500  0.729167  0.000000     0.003472
                              259:  0.437500  0.770833  0.000000     0.003472
                              260:  0.437500  0.812500  0.000000     0.003472
                              261:  0.437500  0.854167  0.000000     0.003472
                              262:  0.437500  0.895833  0.000000     0.003472
                              263:  0.437500  0.937500  0.000000     0.003472
                              264:  0.437500  0.979167  0.000000     0.003472
                              265:  0.479167  0.020833  0.000000     0.003472
                              266:  0.479167  0.062500  0.000000     0.003472
                              267:  0.479167  0.104167  0.000000     0.003472
                              268:  0.479167  0.145833  0.000000     0.003472
                              269:  0.479167  0.187500  0.000000     0.003472
                              270:  0.479167  0.229167  0.000000     0.003472
                              271:  0.479167  0.270833  0.000000     0.003472
                              272:  0.479167  0.312500  0.000000     0.003472
                              273:  0.479167  0.354167  0.000000     0.003472
                              274:  0.479167  0.395833  0.000000     0.003472
                              275:  0.479167  0.437500  0.000000     0.003472
                              276:  0.479167  0.479167  0.000000     0.003472
                              277:  0.479167  0.520833  0.000000     0.003472
                              278:  0.479167  0.562500  0.000000     0.003472
                              279:  0.479167  0.604167  0.000000     0.003472
                              280:  0.479167  0.645833  0.000000     0.003472
                              281:  0.479167  0.687500  0.000000     0.003472
                              282:  0.479167  0.729167  0.000000     0.003472
                              283:  0.479167  0.770833  0.000000     0.003472
                              284:  0.479167  0.812500  0.000000     0.003472
                              285:  0.479167  0.854167  0.000000     0.003472
                              286:  0.479167  0.895833  0.000000     0.003472
                              287:  0.479167  0.937500  0.000000     0.003472
                              288:  0.479167  0.979167  0.000000     0.003472

K-points in absolute space:     1:  0.002942  0.002441  0.000000
                                2:  0.002942  0.007324  0.000000
                                3:  0.002942  0.012206  0.000000
                                4:  0.002942  0.017089  0.000000
                                5:  0.002942  0.021971  0.000000
                                6:  0.002942  0.026853  0.000000
                                7:  0.002942  0.031736  0.000000
                                8:  0.002942  0.036618  0.000000
                                9:  0.002942  0.041501  0.000000
                               10:  0.002942  0.046383  0.000000
                               11:  0.002942  0.051266  0.000000
                               12:  0.002942  0.056148  0.000000
                               13:  0.002942  0.061030  0.000000
                               14:  0.002942  0.065913  0.000000
                               15:  0.002942  0.070795  0.000000
                               16:  0.002942  0.075678  0.000000
                               17:  0.002942  0.080560  0.000000
                               18:  0.002942  0.085443  0.000000
                               19:  0.002942  0.090325  0.000000
                               20:  0.002942  0.095207  0.000000
                               21:  0.002942  0.100090  0.000000
                               22:  0.002942  0.104972  0.000000
                               23:  0.002942  0.109855  0.000000
                               24:  0.002942  0.114737  0.000000
                               25:  0.008827  0.002441  0.000000
                               26:  0.008827  0.007324  0.000000
                               27:  0.008827  0.012206  0.000000
                               28:  0.008827  0.017089  0.000000
                               29:  0.008827  0.021971  0.000000
                               30:  0.008827  0.026853  0.000000
                               31:  0.008827  0.031736  0.000000
                               32:  0.008827  0.036618  0.000000
                               33:  0.008827  0.041501  0.000000
                               34:  0.008827  0.046383  0.000000
                               35:  0.008827  0.051266  0.000000
                               36:  0.008827  0.056148  0.000000
                               37:  0.008827  0.061030  0.000000
                               38:  0.008827  0.065913  0.000000
                               39:  0.008827  0.070795  0.000000
                               40:  0.008827  0.075678  0.000000
                               41:  0.008827  0.080560  0.000000
                               42:  0.008827  0.085443  0.000000
                               43:  0.008827  0.090325  0.000000
                               44:  0.008827  0.095207  0.000000
                               45:  0.008827  0.100090  0.000000
                               46:  0.008827  0.104972  0.000000
                               47:  0.008827  0.109855  0.000000
                               48:  0.008827  0.114737  0.000000
                               49:  0.014711  0.002441  0.000000
                               50:  0.014711  0.007324  0.000000
                               51:  0.014711  0.012206  0.000000
                               52:  0.014711  0.017089  0.000000
                               53:  0.014711  0.021971  0.000000
                               54:  0.014711  0.026853  0.000000
                               55:  0.014711  0.031736  0.000000
                               56:  0.014711  0.036618  0.000000
                               57:  0.014711  0.041501  0.000000
                               58:  0.014711  0.046383  0.000000
                               59:  0.014711  0.051266  0.000000
                               60:  0.014711  0.056148  0.000000
                               61:  0.014711  0.061030  0.000000
                               62:  0.014711  0.065913  0.000000
                               63:  0.014711  0.070795  0.000000
                               64:  0.014711  0.075678  0.000000
                               65:  0.014711  0.080560  0.000000
                               66:  0.014711  0.085443  0.000000
                               67:  0.014711  0.090325  0.000000
                               68:  0.014711  0.095207  0.000000
                               69:  0.014711  0.100090  0.000000
                               70:  0.014711  0.104972  0.000000
                               71:  0.014711  0.109855  0.000000
                               72:  0.014711  0.114737  0.000000
                               73:  0.020596  0.002441  0.000000
                               74:  0.020596  0.007324  0.000000
                               75:  0.020596  0.012206  0.000000
                               76:  0.020596  0.017089  0.000000
                               77:  0.020596  0.021971  0.000000
                               78:  0.020596  0.026853  0.000000
                               79:  0.020596  0.031736  0.000000
                               80:  0.020596  0.036618  0.000000
                               81:  0.020596  0.041501  0.000000
                               82:  0.020596  0.046383  0.000000
                               83:  0.020596  0.051266  0.000000
                               84:  0.020596  0.056148  0.000000
                               85:  0.020596  0.061030  0.000000
                               86:  0.020596  0.065913  0.000000
                               87:  0.020596  0.070795  0.000000
                               88:  0.020596  0.075678  0.000000
                               89:  0.020596  0.080560  0.000000
                               90:  0.020596  0.085443  0.000000
                               91:  0.020596  0.090325  0.000000
                               92:  0.020596  0.095207  0.000000
                               93:  0.020596  0.100090  0.000000
                               94:  0.020596  0.104972  0.000000
                               95:  0.020596  0.109855  0.000000
                               96:  0.020596  0.114737  0.000000
                               97:  0.026480  0.002441  0.000000
                               98:  0.026480  0.007324  0.000000
                               99:  0.026480  0.012206  0.000000
                              100:  0.026480  0.017089  0.000000
                              101:  0.026480  0.021971  0.000000
                              102:  0.026480  0.026853  0.000000
                              103:  0.026480  0.031736  0.000000
                              104:  0.026480  0.036618  0.000000
                              105:  0.026480  0.041501  0.000000
                              106:  0.026480  0.046383  0.000000
                              107:  0.026480  0.051266  0.000000
                              108:  0.026480  0.056148  0.000000
                              109:  0.026480  0.061030  0.000000
                              110:  0.026480  0.065913  0.000000
                              111:  0.026480  0.070795  0.000000
                              112:  0.026480  0.075678  0.000000
                              113:  0.026480  0.080560  0.000000
                              114:  0.026480  0.085443  0.000000
                              115:  0.026480  0.090325  0.000000
                              116:  0.026480  0.095207  0.000000
                              117:  0.026480  0.100090  0.000000
                              118:  0.026480  0.104972  0.000000
                              119:  0.026480  0.109855  0.000000
                              120:  0.026480  0.114737  0.000000
                              121:  0.032365  0.002441  0.000000
                              122:  0.032365  0.007324  0.000000
                              123:  0.032365  0.012206  0.000000
                              124:  0.032365  0.017089  0.000000
                              125:  0.032365  0.021971  0.000000
                              126:  0.032365  0.026853  0.000000
                              127:  0.032365  0.031736  0.000000
                              128:  0.032365  0.036618  0.000000
                              129:  0.032365  0.041501  0.000000
                              130:  0.032365  0.046383  0.000000
                              131:  0.032365  0.051266  0.000000
                              132:  0.032365  0.056148  0.000000
                              133:  0.032365  0.061030  0.000000
                              134:  0.032365  0.065913  0.000000
                              135:  0.032365  0.070795  0.000000
                              136:  0.032365  0.075678  0.000000
                              137:  0.032365  0.080560  0.000000
                              138:  0.032365  0.085443  0.000000
                              139:  0.032365  0.090325  0.000000
                              140:  0.032365  0.095207  0.000000
                              141:  0.032365  0.100090  0.000000
                              142:  0.032365  0.104972  0.000000
                              143:  0.032365  0.109855  0.000000
                              144:  0.032365  0.114737  0.000000
                              145:  0.038249  0.002441  0.000000
                              146:  0.038249  0.007324  0.000000
                              147:  0.038249  0.012206  0.000000
                              148:  0.038249  0.017089  0.000000
                              149:  0.038249  0.021971  0.000000
                              150:  0.038249  0.026853  0.000000
                              151:  0.038249  0.031736  0.000000
                              152:  0.038249  0.036618  0.000000
                              153:  0.038249  0.041501  0.000000
                              154:  0.038249  0.046383  0.000000
                              155:  0.038249  0.051266  0.000000
                              156:  0.038249  0.056148  0.000000
                              157:  0.038249  0.061030  0.000000
                              158:  0.038249  0.065913  0.000000
                              159:  0.038249  0.070795  0.000000
                              160:  0.038249  0.075678  0.000000
                              161:  0.038249  0.080560  0.000000
                              162:  0.038249  0.085443  0.000000
                              163:  0.038249  0.090325  0.000000
                              164:  0.038249  0.095207  0.000000
                              165:  0.038249  0.100090  0.000000
                              166:  0.038249  0.104972  0.000000
                              167:  0.038249  0.109855  0.000000
                              168:  0.038249  0.114737  0.000000
                              169:  0.044133  0.002441  0.000000
                              170:  0.044133  0.007324  0.000000
                              171:  0.044133  0.012206  0.000000
                              172:  0.044133  0.017089  0.000000
                              173:  0.044133  0.021971  0.000000
                              174:  0.044133  0.026853  0.000000
                              175:  0.044133  0.031736  0.000000
                              176:  0.044133  0.036618  0.000000
                              177:  0.044133  0.041501  0.000000
                              178:  0.044133  0.046383  0.000000
                              179:  0.044133  0.051266  0.000000
                              180:  0.044133  0.056148  0.000000
                              181:  0.044133  0.061030  0.000000
                              182:  0.044133  0.065913  0.000000
                              183:  0.044133  0.070795  0.000000
                              184:  0.044133  0.075678  0.000000
                              185:  0.044133  0.080560  0.000000
                              186:  0.044133  0.085443  0.000000
                              187:  0.044133  0.090325  0.000000
                              188:  0.044133  0.095207  0.000000
                              189:  0.044133  0.100090  0.000000
                              190:  0.044133  0.104972  0.000000
                              191:  0.044133  0.109855  0.000000
                              192:  0.044133  0.114737  0.000000
                              193:  0.050018  0.002441  0.000000
                              194:  0.050018  0.007324  0.000000
                              195:  0.050018  0.012206  0.000000
                              196:  0.050018  0.017089  0.000000
                              197:  0.050018  0.021971  0.000000
                              198:  0.050018  0.026853  0.000000
                              199:  0.050018  0.031736  0.000000
                              200:  0.050018  0.036618  0.000000
                              201:  0.050018  0.041501  0.000000
                              202:  0.050018  0.046383  0.000000
                              203:  0.050018  0.051266  0.000000
                              204:  0.050018  0.056148  0.000000
                              205:  0.050018  0.061030  0.000000
                              206:  0.050018  0.065913  0.000000
                              207:  0.050018  0.070795  0.000000
                              208:  0.050018  0.075678  0.000000
                              209:  0.050018  0.080560  0.000000
                              210:  0.050018  0.085443  0.000000
                              211:  0.050018  0.090325  0.000000
                              212:  0.050018  0.095207  0.000000
                              213:  0.050018  0.100090  0.000000
                              214:  0.050018  0.104972  0.000000
                              215:  0.050018  0.109855  0.000000
                              216:  0.050018  0.114737  0.000000
                              217:  0.055902  0.002441  0.000000
                              218:  0.055902  0.007324  0.000000
                              219:  0.055902  0.012206  0.000000
                              220:  0.055902  0.017089  0.000000
                              221:  0.055902  0.021971  0.000000
                              222:  0.055902  0.026853  0.000000
                              223:  0.055902  0.031736  0.000000
                              224:  0.055902  0.036618  0.000000
                              225:  0.055902  0.041501  0.000000
                              226:  0.055902  0.046383  0.000000
                              227:  0.055902  0.051266  0.000000
                              228:  0.055902  0.056148  0.000000
                              229:  0.055902  0.061030  0.000000
                              230:  0.055902  0.065913  0.000000
                              231:  0.055902  0.070795  0.000000
                              232:  0.055902  0.075678  0.000000
                              233:  0.055902  0.080560  0.000000
                              234:  0.055902  0.085443  0.000000
                              235:  0.055902  0.090325  0.000000
                              236:  0.055902  0.095207  0.000000
                              237:  0.055902  0.100090  0.000000
                              238:  0.055902  0.104972  0.000000
                              239:  0.055902  0.109855  0.000000
                              240:  0.055902  0.114737  0.000000
                              241:  0.061787  0.002441  0.000000
                              242:  0.061787  0.007324  0.000000
                              243:  0.061787  0.012206  0.000000
                              244:  0.061787  0.017089  0.000000
                              245:  0.061787  0.021971  0.000000
                              246:  0.061787  0.026853  0.000000
                              247:  0.061787  0.031736  0.000000
                              248:  0.061787  0.036618  0.000000
                              249:  0.061787  0.041501  0.000000
                              250:  0.061787  0.046383  0.000000
                              251:  0.061787  0.051266  0.000000
                              252:  0.061787  0.056148  0.000000
                              253:  0.061787  0.061030  0.000000
                              254:  0.061787  0.065913  0.000000
                              255:  0.061787  0.070795  0.000000
                              256:  0.061787  0.075678  0.000000
                              257:  0.061787  0.080560  0.000000
                              258:  0.061787  0.085443  0.000000
                              259:  0.061787  0.090325  0.000000
                              260:  0.061787  0.095207  0.000000
                              261:  0.061787  0.100090  0.000000
                              262:  0.061787  0.104972  0.000000
                              263:  0.061787  0.109855  0.000000
                              264:  0.061787  0.114737  0.000000
                              265:  0.067671  0.002441  0.000000
                              266:  0.067671  0.007324  0.000000
                              267:  0.067671  0.012206  0.000000
                              268:  0.067671  0.017089  0.000000
                              269:  0.067671  0.021971  0.000000
                              270:  0.067671  0.026853  0.000000
                              271:  0.067671  0.031736  0.000000
                              272:  0.067671  0.036618  0.000000
                              273:  0.067671  0.041501  0.000000
                              274:  0.067671  0.046383  0.000000
                              275:  0.067671  0.051266  0.000000
                              276:  0.067671  0.056148  0.000000
                              277:  0.067671  0.061030  0.000000
                              278:  0.067671  0.065913  0.000000
                              279:  0.067671  0.070795  0.000000
                              280:  0.067671  0.075678  0.000000
                              281:  0.067671  0.080560  0.000000
                              282:  0.067671  0.085443  0.000000
                              283:  0.067671  0.090325  0.000000
                              284:  0.067671  0.095207  0.000000
                              285:  0.067671  0.100090  0.000000
                              286:  0.067671  0.104972  0.000000
                              287:  0.067671  0.109855  0.000000
                              288:  0.067671  0.114737  0.000000

Extra options:
                             Mulliken analysis
Force type                   original

--------------------------------------------------------------------------------

***  Geometry step: 0, Lattice step: 0

 iSCC Total electronic   Diff electronic      SCC error    
    1    0.00000000E+00    0.00000000E+00    0.11233660E-01
    2   -0.10719680E+02   -0.10719680E+02    0.69831700E-02
    3   -0.10719685E+02   -0.49016870E-05    0.26411592E-04
    4   -0.10719688E+02   -0.31536457E-05    0.16969946E-04
    5   -0.10719688E+02   -0.46489035E-10    0.16025511E-07

Total Energy:                      -10.2696824538 H         -279.4523 eV
Extrapolated to 0K:                -10.2697638566 H         -279.4545 eV
Total Mermin free energy:          -10.2698452594 H         -279.4567 eV
Force related energy:              -10.2698452594 H         -279.4567 eV

Volume:                              0.471748E+04 au^3   0.699059E+03 A^3
Pressure:                            0.278764E-04 au     0.820151E+09 Pa
Maximal force component:             0.288980E-01
Averaged force norm:                 0.284249E-01
Maximal Lattice force component:     0.375342E-01 au
Averaged lattice force norm:         0.233553E-01 au
>> Charges saved for restart in charges.bin

--------------------------------------------------------------------------------

***  Geometry step: 1, Lattice step: 0

 iSCC Total electronic   Diff electronic      SCC error    
    1   -0.10719688E+02    0.00000000E+00    0.69961855E-01
    2   -0.10769458E+02   -0.49769923E-01    0.47460044E-01
    3   -0.10769568E+02   -0.11034188E-03    0.10367921E-04
    4   -0.10769662E+02   -0.94076429E-04    0.66788852E-05

Total Energy:                      -10.1914329900 H         -277.3230 eV
Extrapolated to 0K:                -10.1914330517 H         -277.3230 eV
Total Mermin free energy:          -10.1914331133 H         -277.3230 eV
Force related energy:              -10.1914331133 H         -277.3230 eV

Volume:                              0.471748E+04 au^3   0.699059E+03 A^3
Pressure:                            0.752529E-04 au     0.221402E+10 Pa
Maximal force component:             0.198712E+00
Averaged force norm:                 0.230059E+00
Maximal Lattice force component:     0.150333E+00 au
Averaged lattice force norm:         0.867948E-01 au
>> Charges saved for restart in charges.bin

--------------------------------------------------------------------------------

***  Geometry step: 2, Lattice step: 0

 iSCC Total electronic   Diff electronic      SCC error    
    1   -0.10769662E+02    0.00000000E+00    0.70351816E-01
    2   -0.10722193E+02    0.47469188E-01    0.44174955E-01
    3   -0.10722373E+02   -0.18008965E-03    0.12225086E-03
    4   -0.10722490E+02   -0.11650857E-03    0.58406322E-04
    5   -0.10722490E+02   -0.30132590E-08    0.21400665E-06

Total Energy:                      -10.2711951263 H         -279.4934 eV
Extrapolated to 0K:                -10.2712832268 H         -279.4958 eV
Total Mermin free energy:          -10.2713713273 H         -279.4982 eV
Force related energy:              -10.2713713273 H         -279.4982 eV

Volume:                              0.471748E+04 au^3   0.699059E+03 A^3
Pressure:                            0.275289E-04 au     0.809929E+09 Pa
Maximal force component:             0.877565E-02
Averaged force norm:                 0.985222E-02
Maximal Lattice force component:     0.441578E-01 au
Averaged lattice force norm:         0.260203E-01 au
>> Charges saved for restart in charges.bin

--------------------------------------------------------------------------------

***  Geometry step: 3, Lattice step: 0

 iSCC Total electronic   Diff electronic      SCC error    
    1   -0.10722490E+02    0.00000000E+00    0.46844949E-02
    2   -0.10727396E+02   -0.49066911E-02    0.29368079E-02
    3   -0.10727397E+02   -0.66437969E-06    0.20498407E-04
    4   -0.10727397E+02   -0.27906246E-06    0.91655482E-05

Total Energy:                      -10.2723791942 H         -279.5257 eV
Extrapolated to 0K:                -10.2724000249 H         -279.5262 eV
Total Mermin free energy:          -10.2724208556 H         -279.5268 eV
Force related energy:              -10.2724208556 H         -279.5268 eV

Volume:                              0.471748E+04 au^3   0.699059E+03 A^3
Pressure:                            0.301557E-04 au     0.887211E+09 Pa
Maximal force component:             0.903346E-02
Averaged force norm:                 0.922033E-02
Maximal Lattice force component:     0.512034E-01 au
Averaged lattice force norm:         0.298798E-01 au
>> Charges saved for restart in charges.bin

--------------------------------------------------------------------------------

***  Geometry step: 4, Lattice step: 0

 iSCC Total electronic   Diff electronic      SCC error    
    1   -0.10727397E+02    0.00000000E+00    0.89438663E-02
    2   -0.10736145E+02   -0.87480326E-02    0.56397715E-02
    3   -0.10736148E+02   -0.26061915E-05    0.36127765E-04
    4   -0.10736149E+02   -0.13918045E-05    0.21665196E-04
    5   -0.10736149E+02   -0.12448886E-09    0.10528832E-07

Total Energy:                      -10.2720040409 H         -279.5155 eV
Extrapolated to 0K:                -10.2720088156 H         -279.5156 eV
Total Mermin free energy:          -10.2720135903 H         -279.5157 eV
Force related energy:              -10.2720135903 H         -279.5157 eV

Volume:                              0.471748E+04 au^3   0.699059E+03 A^3
Pressure:                            0.360806E-04 au     0.106153E+10 Pa
Maximal force component:             0.138527E-01
Averaged force norm:                 0.150230E-01
Maximal Lattice force component:     0.497705E-01 au
Averaged lattice force norm:         0.306638E-01 au
>> Charges saved for restart in charges.bin

--------------------------------------------------------------------------------

***  Geometry step: 5, Lattice step: 0

 iSCC Total electronic   Diff electronic      SCC error    
    1   -0.10736149E+02    0.00000000E+00    0.55203514E-02
    2   -0.10730714E+02    0.54356957E-02    0.34669909E-02
    3   -0.10730715E+02   -0.13890869E-05    0.22294599E-04
    4   -0.10730716E+02   -0.11833008E-05    0.11328005E-04
    5   -0.10730716E+02    0.54759752E-10    0.58245009E-08

Total Energy:                      -10.2726870696 H         -279.5340 eV
Extrapolated to 0K:                -10.2726976284 H         -279.5343 eV
Total Mermin free energy:          -10.2727081873 H         -279.5346 eV
Force related energy:              -10.2727081873 H         -279.5346 eV

Volume:                              0.471748E+04 au^3   0.699059E+03 A^3
Pressure:                            0.320755E-04 au     0.943695E+09 Pa
Maximal force component:             0.220119E-02
Averaged force norm:                 0.189627E-02
Maximal Lattice force component:     0.503655E-01 au
Averaged lattice force norm:         0.298146E-01 au
>> Charges saved for restart in charges.bin

--------------------------------------------------------------------------------

***  Geometry step: 6, Lattice step: 0

 iSCC Total electronic   Diff electronic      SCC error    
    1   -0.10730716E+02    0.00000000E+00    0.15946783E-01
    2   -0.10738406E+02   -0.76901871E-02    0.99912424E-02
    3   -0.10738417E+02   -0.10131276E-04    0.21756379E-03
    4   -0.10738424E+02   -0.72031555E-05    0.67855659E-04
    5   -0.10738424E+02    0.15073116E-08    0.13291970E-06

Total Energy:                      -10.2708175869 H         -279.4832 eV
Extrapolated to 0K:                -10.2708235469 H         -279.4833 eV
Total Mermin free energy:          -10.2708295069 H         -279.4835 eV
Force related energy:              -10.2708295069 H         -279.4835 eV

Volume:                              0.471748E+04 au^3   0.699059E+03 A^3
Pressure:                            0.371850E-04 au     0.109402E+10 Pa
Maximal force component:             0.228005E-01
Averaged force norm:                 0.266094E-01
Maximal Lattice force component:     0.544326E-01 au
Averaged lattice force norm:         0.328392E-01 au
>> Charges saved for restart in charges.bin

--------------------------------------------------------------------------------

***  Geometry step: 7, Lattice step: 0

 iSCC Total electronic   Diff electronic      SCC error    
    1   -0.10738424E+02    0.00000000E+00    0.14813521E-01
    2   -0.10731225E+02    0.71982377E-02    0.93002495E-02
    3   -0.10731233E+02   -0.74624895E-05    0.19342114E-03
    4   -0.10731237E+02   -0.41300339E-05    0.62295550E-04
    5   -0.10731237E+02   -0.32902587E-08    0.13569502E-06

Total Energy:                      -10.2726976481 H         -279.5343 eV
Extrapolated to 0K:                -10.2727078609 H         -279.5346 eV
Total Mermin free energy:          -10.2727180737 H         -279.5349 eV
Force related energy:              -10.2727180737 H         -279.5349 eV

Volume:                              0.471748E+04 au^3   0.699059E+03 A^3
Pressure:                            0.323650E-04 au     0.952211E+09 Pa
Maximal force component:             0.395373E-03
Averaged force norm:                 0.373243E-03
Maximal Lattice force component:     0.506171E-01 au
Averaged lattice force norm:         0.299911E-01 au
>> Charges saved for restart in charges.bin

--------------------------------------------------------------------------------

***  Geometry step: 8, Lattice step: 0

 iSCC Total electronic   Diff electronic      SCC error    
    1   -0.10731237E+02    0.00000000E+00    0.98019567E-03
    2   -0.10731863E+02   -0.62577398E-03    0.61616770E-03
    3   -0.10731863E+02    0.86597076E-08    0.22380961E-04
    4   -0.10731863E+02    0.52982235E-07    0.87924154E-07

Total Energy:                      -10.2726898047 H         -279.5341 eV
Extrapolated to 0K:                -10.2726985898 H         -279.5344 eV
Total Mermin free energy:          -10.2727073750 H         -279.5346 eV
Force related energy:              -10.2727073750 H         -279.5346 eV

Volume:                              0.471748E+04 au^3   0.699059E+03 A^3
Pressure:                            0.326086E-04 au     0.959378E+09 Pa
Maximal force component:             0.295794E-02
Averaged force norm:                 0.245850E-02
Maximal Lattice force component:     0.513641E-01 au
Averaged lattice force norm:         0.303841E-01 au
>> Charges saved for restart in charges.bin

--------------------------------------------------------------------------------

***  Geometry step: 9, Lattice step: 0

 iSCC Total electronic   Diff electronic      SCC error    
    1   -0.10731863E+02    0.00000000E+00    0.85295431E-03
    2   -0.10731318E+02    0.54440221E-03    0.53565610E-03
    3   -0.10731318E+02   -0.68637448E-07    0.19601304E-04
    4   -0.10731319E+02   -0.87810330E-07    0.48357667E-07

Total Energy:                      -10.2726982782 H         -279.5343 eV
Extrapolated to 0K:                -10.2727083005 H         -279.5346 eV
Total Mermin free energy:          -10.2727183229 H         -279.5349 eV
Force related energy:              -10.2727183229 H         -279.5349 eV

Volume:                              0.471748E+04 au^3   0.699059E+03 A^3
Pressure:                            0.323959E-04 au     0.953120E+09 Pa
Maximal force component:             0.872482E-04
Averaged force norm:                 0.788970E-04
Maximal Lattice force component:     0.507137E-01 au
Averaged lattice force norm:         0.300417E-01 au
>> Charges saved for restart in charges.bin

--------------------------------------------------------------------------------

***  Geometry step: 10, Lattice step: 0

 iSCC Total electronic   Diff electronic      SCC error    
    1   -0.10731319E+02    0.00000000E+00    0.48357667E-07

Total Energy:                      -10.2726982782 H         -279.5343 eV
Extrapolated to 0K:                -10.2727083005 H         -279.5346 eV
Total Mermin free energy:          -10.2727183229 H         -279.5349 eV
Force related energy:              -10.2727183229 H         -279.5349 eV

Volume:                              0.471748E+04 au^3   0.699059E+03 A^3
Pressure:                            0.323959E-04 au     0.953120E+09 Pa
Maximal force component:             0.872482E-04
Averaged force norm:                 0.788970E-04
Maximal Lattice force component:     0.507137E-01 au
Averaged lattice force norm:         0.300417E-01 au
>> Charges saved for restart in charges.bin

--------------------------------------------------------------------------------

***  Geometry step: 11, Lattice step: 1

 iSCC Total electronic   Diff electronic      SCC error    
    1   -0.10731319E+02    0.00000000E+00    0.95081743E-02
    2   -0.10674502E+02    0.56816933E-01    0.58795791E-02
    3   -0.10674505E+02   -0.32247296E-05    0.60369826E-06

Total Energy:                      -10.2759938141 H         -279.6240 eV
Extrapolated to 0K:                -10.2759991435 H         -279.6242 eV
Total Mermin free energy:          -10.2760044729 H         -279.6243 eV
Force related energy:              -10.2760044729 H         -279.6243 eV

Volume:                              0.487684E+04 au^3   0.722673E+03 A^3
Pressure:                           -0.146665E-04 au    -0.431502E+09 Pa
Maximal force component:             0.206855E-01
Averaged force norm:                 0.122853E-01
Maximal Lattice force component:     0.148341E-01 au
Averaged lattice force norm:         0.111705E-01 au
>> Charges saved for restart in charges.bin

--------------------------------------------------------------------------------

***  Geometry step: 12, Lattice step: 1

 iSCC Total electronic   Diff electronic      SCC error    
    1   -0.10674506E+02    0.00000000E+00    0.30376062E-02
    2   -0.10694604E+02   -0.20097425E-01    0.19545594E-02
    3   -0.10694604E+02   -0.29594141E-06    0.29282218E-05

Total Energy:                      -10.2674490836 H         -279.3915 eV
Extrapolated to 0K:                -10.2674490843 H         -279.3915 eV
Total Mermin free energy:          -10.2674490849 H         -279.3915 eV
Force related energy:              -10.2674490849 H         -279.3915 eV

Volume:                              0.487684E+04 au^3   0.722673E+03 A^3
Pressure:                           -0.302405E-05 au    -0.889706E+08 Pa
Maximal force component:             0.836210E-01
Averaged force norm:                 0.604649E-01
Maximal Lattice force component:     0.159020E-01 au
Averaged lattice force norm:         0.117363E-01 au
>> Charges saved for restart in charges.bin

--------------------------------------------------------------------------------

***  Geometry step: 13, Lattice step: 1

 iSCC Total electronic   Diff electronic      SCC error    
    1   -0.10694604E+02    0.00000000E+00    0.36415463E-02
    2   -0.10677732E+02    0.16871915E-01    0.22720032E-02
    3   -0.10677733E+02   -0.45515768E-06    0.34841716E-05

Total Energy:                      -10.2763587423 H         -279.6339 eV
Extrapolated to 0K:                -10.2763600496 H         -279.6340 eV
Total Mermin free energy:          -10.2763613570 H         -279.6340 eV
Force related energy:              -10.2763613570 H         -279.6340 eV

Volume:                              0.487684E+04 au^3   0.722673E+03 A^3
Pressure:                           -0.137257E-04 au    -0.403822E+09 Pa
Maximal force component:             0.399167E-02
Averaged force norm:                 0.388505E-02
Maximal Lattice force component:     0.144088E-01 au
Averaged lattice force norm:         0.103280E-01 au
>> Charges saved for restart in charges.bin

--------------------------------------------------------------------------------

***  Geometry step: 14, Lattice step: 1

 iSCC Total electronic   Diff electronic      SCC error    
    1   -0.10677733E+02    0.00000000E+00    0.71479727E-02
    2   -0.10680880E+02   -0.31472085E-02    0.44515617E-02
    3   -0.10680882E+02   -0.20544412E-05    0.19682120E-05

Total Energy:                      -10.2761498284 H         -279.6283 eV
Extrapolated to 0K:                -10.2761508643 H         -279.6283 eV
Total Mermin free energy:          -10.2761519001 H         -279.6283 eV
Force related energy:              -10.2761519001 H         -279.6283 eV

Volume:                              0.487684E+04 au^3   0.722673E+03 A^3
Pressure:                           -0.112870E-04 au    -0.332076E+09 Pa
Maximal force component:             0.902741E-02
Averaged force norm:                 0.918247E-02
Maximal Lattice force component:     0.106874E-01 au
Averaged lattice force norm:         0.848447E-02 au
>> Charges saved for restart in charges.bin

--------------------------------------------------------------------------------

***  Geometry step: 15, Lattice step: 1

 iSCC Total electronic   Diff electronic      SCC error    
    1   -0.10680884E+02    0.00000000E+00    0.54320163E-02
    2   -0.10678477E+02    0.24063750E-02    0.33879470E-02
    3   -0.10678478E+02   -0.10557691E-05    0.13968837E-05

Total Energy:                      -10.2763820289 H         -279.6346 eV
Extrapolated to 0K:                -10.2763832677 H         -279.6346 eV
Total Mermin free energy:          -10.2763845066 H         -279.6347 eV
Force related energy:              -10.2763845066 H         -279.6347 eV

Volume:                              0.487684E+04 au^3   0.722673E+03 A^3
Pressure:                           -0.131722E-04 au    -0.387539E+09 Pa
Maximal force component:             0.271612E-02
Averaged force norm:                 0.183965E-02
Maximal Lattice force component:     0.135622E-01 au
Averaged lattice force norm:         0.989796E-02 au
>> Charges saved for restart in charges.bin

--------------------------------------------------------------------------------

***  Geometry step: 16, Lattice step: 1

 iSCC Total electronic   Diff electronic      SCC error    
    1   -0.10678479E+02    0.00000000E+00    0.25427742E-03
    2   -0.10677799E+02    0.68034402E-03    0.15820964E-03
    3   -0.10677799E+02   -0.73039104E-08    0.58481750E-07

Total Energy:                      -10.2763820814 H         -279.6346 eV
Extrapolated to 0K:                -10.2763838980 H         -279.6346 eV
Total Mermin free energy:          -10.2763857146 H         -279.6347 eV
Force related energy:              -10.2763857146 H         -279.6347 eV

Volume:                              0.487684E+04 au^3   0.722673E+03 A^3
Pressure:                           -0.133604E-04 au    -0.393076E+09 Pa
Maximal force component:             0.236836E-02
Averaged force norm:                 0.174152E-02
Maximal Lattice force component:     0.129897E-01 au
Averaged lattice force norm:         0.100316E-01 au
>> Charges saved for restart in charges.bin

--------------------------------------------------------------------------------

***  Geometry step: 17, Lattice step: 1

 iSCC Total electronic   Diff electronic      SCC error    
    1   -0.10677799E+02    0.00000000E+00    0.12606775E-03
    2   -0.10678123E+02   -0.32407488E-03    0.78525273E-04
    3   -0.10678123E+02    0.14389592E-08    0.19651638E-07

Total Energy:                      -10.2763890200 H         -279.6348 eV
Extrapolated to 0K:                -10.2763905373 H         -279.6348 eV
Total Mermin free energy:          -10.2763920546 H         -279.6349 eV
Force related energy:              -10.2763920546 H         -279.6349 eV

Volume:                              0.487684E+04 au^3   0.722673E+03 A^3
Pressure:                           -0.132742E-04 au    -0.390541E+09 Pa
Maximal force component:             0.111911E-03
Averaged force norm:                 0.116668E-03
Maximal Lattice force component:     0.132681E-01 au
Averaged lattice force norm:         0.996479E-02 au
>> Charges saved for restart in charges.bin

--------------------------------------------------------------------------------

***  Geometry step: 18, Lattice step: 1

 iSCC Total electronic   Diff electronic      SCC error    
    1   -0.10678123E+02    0.00000000E+00    0.10863574E-02
    2   -0.10677971E+02    0.15143445E-03    0.67698780E-03
    3   -0.10677971E+02   -0.28057618E-07    0.87736466E-06

Total Energy:                      -10.2763842428 H         -279.6346 eV
Extrapolated to 0K:                -10.2763857297 H         -279.6347 eV
Total Mermin free energy:          -10.2763872165 H         -279.6347 eV
Force related energy:              -10.2763872165 H         -279.6347 eV

Volume:                              0.487684E+04 au^3   0.722673E+03 A^3
Pressure:                           -0.134215E-04 au    -0.394873E+09 Pa
Maximal force component:             0.114063E-02
Averaged force norm:                 0.131994E-02
Maximal Lattice force component:     0.134372E-01 au
Averaged lattice force norm:         0.100755E-01 au
>> Charges saved for restart in charges.bin

--------------------------------------------------------------------------------

***  Geometry step: 19, Lattice step: 1

 iSCC Total electronic   Diff electronic      SCC error    
    1   -0.10677971E+02    0.00000000E+00    0.99763070E-03
    2   -0.10678110E+02   -0.13886100E-03    0.62141051E-03
    3   -0.10678110E+02   -0.54589993E-07    0.73548602E-06

Total Energy:                      -10.2763890643 H         -279.6348 eV
Extrapolated to 0K:                -10.2763905790 H         -279.6348 eV
Total Mermin free energy:          -10.2763920938 H         -279.6349 eV
Force related energy:              -10.2763920938 H         -279.6349 eV

Volume:                              0.487684E+04 au^3   0.722673E+03 A^3
Pressure:                           -0.132865E-04 au    -0.390903E+09 Pa
Maximal force component:             0.156771E-04
Averaged force norm:                 0.143189E-04
Maximal Lattice force component:     0.132822E-01 au
Averaged lattice force norm:         0.997405E-02 au
>> Charges saved for restart in charges.bin

--------------------------------------------------------------------------------

***  Geometry step: 20, Lattice step: 1

 iSCC Total electronic   Diff electronic      SCC error    
    1   -0.10678110E+02    0.00000000E+00    0.73548602E-06

Total Energy:                      -10.2763890643 H         -279.6348 eV
Extrapolated to 0K:                -10.2763905790 H         -279.6348 eV
Total Mermin free energy:          -10.2763920938 H         -279.6349 eV
Force related energy:              -10.2763920938 H         -279.6349 eV

Volume:                              0.487684E+04 au^3   0.722673E+03 A^3
Pressure:                           -0.132865E-04 au    -0.390903E+09 Pa
Maximal force component:             0.156771E-04
Averaged force norm:                 0.143189E-04
Maximal Lattice force component:     0.132822E-01 au
Averaged lattice force norm:         0.997405E-02 au
>> Charges saved for restart in charges.bin

--------------------------------------------------------------------------------

***  Geometry step: 21, Lattice step: 2

 iSCC Total electronic   Diff electronic      SCC error    
    1   -0.10678110E+02    0.00000000E+00    0.15500499E-02
    2   -0.10690189E+02   -0.12078647E-01    0.96827370E-03
    3   -0.10690189E+02   -0.12067615E-06    0.76063588E-07

Total Energy:                      -10.2766919252 H         -279.6430 eV
Extrapolated to 0K:                -10.2766938033 H         -279.6431 eV
Total Mermin free energy:          -10.2766956815 H         -279.6431 eV
Force related energy:              -10.2766956815 H         -279.6431 eV

Volume:                              0.484343E+04 au^3   0.717723E+03 A^3
Pressure:                           -0.417664E-05 au    -0.122881E+09 Pa
Maximal force component:             0.419088E-02
Averaged force norm:                 0.253548E-02
Maximal Lattice force component:     0.843751E-02 au
Averaged lattice force norm:         0.495883E-02 au
>> Charges saved for restart in charges.bin

--------------------------------------------------------------------------------

***  Geometry step: 22, Lattice step: 2

 iSCC Total electronic   Diff electronic      SCC error    
    1   -0.10690189E+02    0.00000000E+00    0.15907694E-02
    2   -0.10686027E+02    0.41622825E-02    0.98384828E-03
    3   -0.10686027E+02   -0.17864828E-06    0.15141381E-06

Total Energy:                      -10.2762715647 H         -279.6316 eV
Extrapolated to 0K:                -10.2762797580 H         -279.6318 eV
Total Mermin free energy:          -10.2762879512 H         -279.6320 eV
Force related energy:              -10.2762879512 H         -279.6320 eV

Volume:                              0.484343E+04 au^3   0.717723E+03 A^3
Pressure:                           -0.549048E-05 au    -0.161536E+09 Pa
Maximal force component:             0.208985E-01
Averaged force norm:                 0.140373E-01
Maximal Lattice force component:     0.658062E-02 au
Averaged lattice force norm:         0.423225E-02 au
>> Charges saved for restart in charges.bin

--------------------------------------------------------------------------------

***  Geometry step: 23, Lattice step: 2

 iSCC Total electronic   Diff electronic      SCC error    
    1   -0.10686027E+02    0.00000000E+00    0.13774002E-02
    2   -0.10689502E+02   -0.34751438E-02    0.85896026E-03
    3   -0.10689503E+02   -0.39898207E-07    0.12344487E-06

Total Energy:                      -10.2767063399 H         -279.6434 eV
Extrapolated to 0K:                -10.2767088405 H         -279.6435 eV
Total Mermin free energy:          -10.2767113411 H         -279.6435 eV
Force related energy:              -10.2767113411 H         -279.6435 eV

Volume:                              0.484343E+04 au^3   0.717723E+03 A^3
Pressure:                           -0.443301E-05 au    -0.130424E+09 Pa
Maximal force component:             0.782091E-03
Averaged force norm:                 0.713945E-03
Maximal Lattice force component:     0.819575E-02 au
Averaged lattice force norm:         0.475459E-02 au
>> Charges saved for restart in charges.bin

--------------------------------------------------------------------------------

***  Geometry step: 24, Lattice step: 2

 iSCC Total electronic   Diff electronic      SCC error    
    1   -0.10689503E+02    0.00000000E+00    0.12058574E-02
    2   -0.10688906E+02    0.59604433E-03    0.75221745E-03
    3   -0.10688907E+02   -0.26268454E-07    0.40069098E-07

Total Energy:                      -10.2767008712 H         -279.6433 eV
Extrapolated to 0K:                -10.2767034563 H         -279.6433 eV
Total Mermin free energy:          -10.2767060414 H         -279.6434 eV
Force related energy:              -10.2767060414 H         -279.6434 eV

Volume:                              0.484343E+04 au^3   0.717723E+03 A^3
Pressure:                           -0.487640E-05 au    -0.143469E+09 Pa
Maximal force component:             0.176280E-02
Averaged force norm:                 0.164699E-02
Maximal Lattice force component:     0.891666E-02 au
Averaged lattice force norm:         0.516712E-02 au
>> Charges saved for restart in charges.bin

--------------------------------------------------------------------------------

***  Geometry step: 25, Lattice step: 2

 iSCC Total electronic   Diff electronic      SCC error    
    1   -0.10688906E+02    0.00000000E+00    0.83507697E-03
    2   -0.10689319E+02   -0.41221225E-03    0.52078450E-03
    3   -0.10689319E+02   -0.46676785E-07    0.29467353E-07

Total Energy:                      -10.2767075875 H         -279.6434 eV
Extrapolated to 0K:                -10.2767101140 H         -279.6435 eV
Total Mermin free energy:          -10.2767126405 H         -279.6436 eV
Force related energy:              -10.2767126405 H         -279.6436 eV

Volume:                              0.484343E+04 au^3   0.717723E+03 A^3
Pressure:                           -0.457052E-05 au    -0.134469E+09 Pa
Maximal force component:             0.580881E-04
Averaged force norm:                 0.551944E-04
Maximal Lattice force component:     0.841922E-02 au
Averaged lattice force norm:         0.488238E-02 au
>> Charges saved for restart in charges.bin

--------------------------------------------------------------------------------

***  Geometry step: 26, Lattice step: 2

 iSCC Total electronic   Diff electronic      SCC error    
    1   -0.10689319E+02    0.00000000E+00    0.29467353E-07

Total Energy:                      -10.2767075875 H         -279.6434 eV
Extrapolated to 0K:                -10.2767101140 H         -279.6435 eV
Total Mermin free energy:          -10.2767126405 H         -279.6436 eV
Force related energy:              -10.2767126405 H         -279.6436 eV

Volume:                              0.484343E+04 au^3   0.717723E+03 A^3
Pressure:                           -0.457052E-05 au    -0.134469E+09 Pa
Maximal force component:             0.580881E-04
Averaged force norm:                 0.551944E-04
Maximal Lattice force component:     0.841922E-02 au
Averaged lattice force norm:         0.488238E-02 au
>> Charges saved for restart in charges.bin

--------------------------------------------------------------------------------

***  Geometry step: 27, Lattice step: 3

 iSCC Total electronic   Diff electronic      SCC error    
    1   -0.10689319E+02    0.00000000E+00    0.53459245E-02
    2   -0.10706936E+02   -0.17617438E-01    0.33809126E-02
    3   -0.10706937E+02   -0.98258935E-06    0.29070428E-06

Total Energy:                      -10.2757633406 H         -279.6177 eV
Extrapolated to 0K:                -10.2757641351 H         -279.6178 eV
Total Mermin free energy:          -10.2757649295 H         -279.6178 eV
Force related energy:              -10.2757649295 H         -279.6178 eV

Volume:                              0.479891E+04 au^3   0.711125E+03 A^3
Pressure:                            0.829175E-05 au     0.243952E+09 Pa
Maximal force component:             0.189105E-01
Averaged force norm:                 0.172936E-01
Maximal Lattice force component:     0.194219E-01 au
Averaged lattice force norm:         0.117445E-01 au
>> Charges saved for restart in charges.bin

--------------------------------------------------------------------------------

***  Geometry step: 28, Lattice step: 3

 iSCC Total electronic   Diff electronic      SCC error    
    1   -0.10706938E+02    0.00000000E+00    0.11895699E-01
    2   -0.10690489E+02    0.16448396E-01    0.77462358E-02
    3   -0.10690494E+02   -0.42525092E-05    0.22810964E-06

Total Energy:                      -10.2553463292 H         -279.0622 eV
Extrapolated to 0K:                -10.2554339091 H         -279.0646 eV
Total Mermin free energy:          -10.2555214890 H         -279.0669 eV
Force related energy:              -10.2555214890 H         -279.0669 eV

Volume:                              0.479891E+04 au^3   0.711125E+03 A^3
Pressure:                            0.294823E-06 au     0.867398E+07 Pa
Maximal force component:             0.898765E-01
Averaged force norm:                 0.955805E-01
Maximal Lattice force component:     0.198522E-01 au
Averaged lattice force norm:         0.149809E-01 au
>> Charges saved for restart in charges.bin

--------------------------------------------------------------------------------

***  Geometry step: 29, Lattice step: 3

 iSCC Total electronic   Diff electronic      SCC error    
    1   -0.10690497E+02    0.00000000E+00    0.10134961E-01
    2   -0.10703797E+02   -0.13300168E-01    0.64395189E-02
    3   -0.10703801E+02   -0.36346095E-05    0.14548896E-05

Total Energy:                      -10.2763644233 H         -279.6341 eV
Extrapolated to 0K:                -10.2763647890 H         -279.6341 eV
Total Mermin free energy:          -10.2763651547 H         -279.6341 eV
Force related energy:              -10.2763651547 H         -279.6341 eV

Volume:                              0.479891E+04 au^3   0.711125E+03 A^3
Pressure:                            0.529233E-05 au     0.155706E+09 Pa
Maximal force component:             0.686189E-02
Averaged force norm:                 0.694135E-02
Maximal Lattice force component:     0.106071E-01 au
Averaged lattice force norm:         0.621127E-02 au
>> Charges saved for restart in charges.bin

--------------------------------------------------------------------------------

***  Geometry step: 30, Lattice step: 3

 iSCC Total electronic   Diff electronic      SCC error    
    1   -0.10703803E+02    0.00000000E+00    0.73021907E-02
    2   -0.10697582E+02    0.62207700E-02    0.45975888E-02
    3   -0.10697585E+02   -0.20947583E-05    0.91729222E-06

Total Energy:                      -10.2761733594 H         -279.6289 eV
Extrapolated to 0K:                -10.2761756711 H         -279.6290 eV
Total Mermin free energy:          -10.2761779827 H         -279.6290 eV
Force related energy:              -10.2761779827 H         -279.6290 eV

Volume:                              0.479891E+04 au^3   0.711125E+03 A^3
Pressure:                            0.243519E-05 au     0.716456E+08 Pa
Maximal force component:             0.767234E-02
Averaged force norm:                 0.891041E-02
Maximal Lattice force component:     0.621105E-02 au
Averaged lattice force norm:         0.383636E-02 au
>> Charges saved for restart in charges.bin

--------------------------------------------------------------------------------

***  Geometry step: 31, Lattice step: 3

 iSCC Total electronic   Diff electronic      SCC error    
    1   -0.10697586E+02    0.00000000E+00    0.50039091E-02
    2   -0.10701790E+02   -0.42037276E-02    0.31715256E-02
    3   -0.10701791E+02   -0.84393032E-06    0.23475269E-06

Total Energy:                      -10.2764208946 H         -279.6356 eV
Extrapolated to 0K:                -10.2764215915 H         -279.6357 eV
Total Mermin free energy:          -10.2764222885 H         -279.6357 eV
Force related energy:              -10.2764222885 H         -279.6357 eV

Volume:                              0.479891E+04 au^3   0.711125E+03 A^3
Pressure:                            0.428726E-05 au     0.126135E+09 Pa
Maximal force component:             0.481219E-02
Averaged force norm:                 0.495681E-02
Maximal Lattice force component:     0.913960E-02 au
Averaged lattice force norm:         0.541253E-02 au
>> Charges saved for restart in charges.bin

--------------------------------------------------------------------------------

***  Geometry step: 32, Lattice step: 3

 iSCC Total electronic   Diff electronic      SCC error    
    1   -0.10701791E+02    0.00000000E+00    0.17467608E-02
    2   -0.10702206E+02   -0.41508534E-03    0.11037814E-02
    3   -0.10702206E+02   -0.13098476E-06    0.43735842E-07

Total Energy:                      -10.2764523028 H         -279.6365 eV
Extrapolated to 0K:                -10.2764534183 H         -279.6365 eV
Total Mermin free energy:          -10.2764545338 H         -279.6366 eV
Force related energy:              -10.2764545338 H         -279.6366 eV

Volume:                              0.479891E+04 au^3   0.711125E+03 A^3
Pressure:                            0.492381E-05 au     0.144863E+09 Pa
Maximal force component:             0.254816E-02
Averaged force norm:                 0.273197E-02
Maximal Lattice force component:     0.116238E-01 au
Averaged lattice force norm:         0.704220E-02 au
>> Charges saved for restart in charges.bin

--------------------------------------------------------------------------------

***  Geometry step: 33, Lattice step: 3

 iSCC Total electronic   Diff electronic      SCC error    
    1   -0.10702207E+02    0.00000000E+00    0.61698066E-03
    2   -0.10702056E+02    0.15022610E-03    0.39028938E-03
    3   -0.10702056E+02   -0.70488362E-08    0.48141229E-08

Total Energy:                      -10.2764659563 H         -279.6369 eV
Extrapolated to 0K:                -10.2764669057 H         -279.6369 eV
Total Mermin free energy:          -10.2764678550 H         -279.6369 eV
Force related energy:              -10.2764678550 H         -279.6369 eV

Volume:                              0.479891E+04 au^3   0.711125E+03 A^3
[...]

Volume:                              0.482492E+04 au^3   0.714979E+03 A^3
Pressure:                           -0.265544E-06 au    -0.781258E+07 Pa
Maximal force component:             0.396334E-02
Averaged force norm:                 0.384630E-02
Maximal Lattice force component:     0.173891E-02 au
Averaged lattice force norm:         0.116779E-02 au
>> Charges saved for restart in charges.bin

--------------------------------------------------------------------------------

***  Geometry step: 43, Lattice step: 4

 iSCC Total electronic   Diff electronic      SCC error    
    1   -0.10695535E+02    0.00000000E+00    0.48499844E-03
    2   -0.10695063E+02    0.47198466E-03    0.30439313E-03
    3   -0.10695063E+02   -0.31562308E-09    0.34907668E-08

Total Energy:                      -10.2769876692 H         -279.6511 eV
Extrapolated to 0K:                -10.2769893583 H         -279.6511 eV
Total Mermin free energy:          -10.2769910474 H         -279.6512 eV
Force related energy:              -10.2769910474 H         -279.6512 eV

Volume:                              0.482492E+04 au^3   0.714979E+03 A^3
Pressure:                           -0.739902E-06 au    -0.217686E+08 Pa
Maximal force component:             0.220095E-04
Averaged force norm:                 0.183467E-04
Maximal Lattice force component:     0.946760E-03 au
Averaged lattice force norm:         0.605319E-03 au
>> Charges saved for restart in charges.bin

--------------------------------------------------------------------------------

***  Geometry step: 44, Lattice step: 4

 iSCC Total electronic   Diff electronic      SCC error    
    1   -0.10695063E+02    0.00000000E+00    0.34907668E-08

Total Energy:                      -10.2769876692 H         -279.6511 eV
Extrapolated to 0K:                -10.2769893583 H         -279.6511 eV
Total Mermin free energy:          -10.2769910474 H         -279.6512 eV
Force related energy:              -10.2769910474 H         -279.6512 eV

Volume:                              0.482492E+04 au^3   0.714979E+03 A^3
Pressure:                           -0.739902E-06 au    -0.217686E+08 Pa
Maximal force component:             0.220095E-04
Averaged force norm:                 0.183467E-04
Maximal Lattice force component:     0.946760E-03 au
Averaged lattice force norm:         0.605319E-03 au
>> Charges saved for restart in charges.bin

--------------------------------------------------------------------------------

***  Geometry step: 45, Lattice step: 5

 iSCC Total electronic   Diff electronic      SCC error    
    1   -0.10695063E+02    0.00000000E+00    0.24607705E-02
    2   -0.10714355E+02   -0.19292552E-01    0.15513472E-02
    3   -0.10714356E+02   -0.27290239E-06    0.93469398E-07

Total Energy:                      -10.2763005762 H         -279.6324 eV
Extrapolated to 0K:                -10.2763029175 H         -279.6324 eV
Total Mermin free energy:          -10.2763052589 H         -279.6325 eV
Force related energy:              -10.2763052589 H         -279.6325 eV

Volume:                              0.477225E+04 au^3   0.707175E+03 A^3
Pressure:                            0.146516E-04 au     0.431065E+09 Pa
Maximal force component:             0.701010E-02
Averaged force norm:                 0.421705E-02
Maximal Lattice force component:     0.202220E-01 au
Averaged lattice force norm:         0.124643E-01 au
>> Charges saved for restart in charges.bin

--------------------------------------------------------------------------------

***  Geometry step: 46, Lattice step: 5

 iSCC Total electronic   Diff electronic      SCC error    
    1   -0.10714356E+02    0.00000000E+00    0.26021988E-02
    2   -0.10708213E+02    0.61424871E-02    0.16211623E-02
    3   -0.10708214E+02   -0.39820118E-06    0.84929323E-07

Total Energy:                      -10.2749584895 H         -279.5958 eV
Extrapolated to 0K:                -10.2749741224 H         -279.5963 eV
Total Mermin free energy:          -10.2749897554 H         -279.5967 eV
Force related energy:              -10.2749897554 H         -279.5967 eV

Volume:                              0.477225E+04 au^3   0.707175E+03 A^3
Pressure:                            0.132213E-04 au     0.388984E+09 Pa
Maximal force component:             0.397058E-01
Averaged force norm:                 0.263316E-01
Maximal Lattice force component:     0.124294E-01 au
Averaged lattice force norm:         0.982861E-02 au
>> Charges saved for restart in charges.bin

--------------------------------------------------------------------------------

***  Geometry step: 47, Lattice step: 5

 iSCC Total electronic   Diff electronic      SCC error    
    1   -0.10708214E+02    0.00000000E+00    0.22707191E-02
    2   -0.10713421E+02   -0.52067489E-02    0.14282011E-02
    3   -0.10713421E+02   -0.12290166E-06    0.59938841E-07

Total Energy:                      -10.2763375784 H         -279.6334 eV
Extrapolated to 0K:                -10.2763410459 H         -279.6335 eV
Total Mermin free energy:          -10.2763445135 H         -279.6336 eV
Force related energy:              -10.2763445135 H         -279.6336 eV

Volume:                              0.477225E+04 au^3   0.707175E+03 A^3
Pressure:                            0.143321E-04 au     0.421664E+09 Pa
Maximal force component:             0.111715E-02
Averaged force norm:                 0.108755E-02
Maximal Lattice force component:     0.189184E-01 au
Averaged lattice force norm:         0.118875E-01 au
>> Charges saved for restart in charges.bin

--------------------------------------------------------------------------------

***  Geometry step: 48, Lattice step: 5

 iSCC Total electronic   Diff electronic      SCC error    
    1   -0.10713421E+02    0.00000000E+00    0.19456662E-02
    2   -0.10712616E+02    0.80545668E-03    0.12244560E-02
    3   -0.10712616E+02   -0.80739275E-07    0.43298793E-07

Total Energy:                      -10.2763249892 H         -279.6330 eV
Extrapolated to 0K:                -10.2763285622 H         -279.6331 eV
Total Mermin free energy:          -10.2763321351 H         -279.6332 eV
Force related energy:              -10.2763321351 H         -279.6332 eV

Volume:                              0.477225E+04 au^3   0.707175E+03 A^3
Pressure:                            0.137410E-04 au     0.404273E+09 Pa
Maximal force component:             0.262962E-02
Averaged force norm:                 0.256849E-02
Maximal Lattice force component:     0.188416E-01 au
Averaged lattice force norm:         0.116443E-01 au
>> Charges saved for restart in charges.bin

--------------------------------------------------------------------------------

***  Geometry step: 49, Lattice step: 5

 iSCC Total electronic   Diff electronic      SCC error    
    1   -0.10712616E+02    0.00000000E+00    0.13517826E-02
    2   -0.10713174E+02   -0.55843761E-03    0.85031399E-03
    3   -0.10713174E+02   -0.10645366E-06    0.23837088E-07

Total Energy:                      -10.2763404767 H         -279.6335 eV
Extrapolated to 0K:                -10.2763439765 H         -279.6335 eV
Total Mermin free energy:          -10.2763474763 H         -279.6336 eV
Force related energy:              -10.2763474763 H         -279.6336 eV

Volume:                              0.477225E+04 au^3   0.707175E+03 A^3
Pressure:                            0.141491E-04 au     0.416282E+09 Pa
Maximal force component:             0.194050E-03
Averaged force norm:                 0.142342E-03
Maximal Lattice force component:     0.188943E-01 au
Averaged lattice force norm:         0.118100E-01 au
>> Charges saved for restart in charges.bin

--------------------------------------------------------------------------------

***  Geometry step: 50, Lattice step: 5

 iSCC Total electronic   Diff electronic      SCC error    
    1   -0.10713174E+02    0.00000000E+00    0.21772092E-03
    2   -0.10712823E+02    0.35168918E-03    0.13684717E-03
    3   -0.10712823E+02   -0.86612690E-08    0.33971412E-08

Total Energy:                      -10.2763369709 H         -279.6334 eV
Extrapolated to 0K:                -10.2763409285 H         -279.6335 eV
Total Mermin free energy:          -10.2763448860 H         -279.6336 eV
Force related energy:              -10.2763448860 H         -279.6336 eV

Volume:                              0.477225E+04 au^3   0.707175E+03 A^3
Pressure:                            0.140216E-04 au     0.412529E+09 Pa
Maximal force component:             0.163878E-02
Averaged force norm:                 0.112222E-02
Maximal Lattice force component:     0.185405E-01 au
Averaged lattice force norm:         0.116408E-01 au
>> Charges saved for restart in charges.bin

--------------------------------------------------------------------------------

***  Geometry step: 51, Lattice step: 5

 iSCC Total electronic   Diff electronic      SCC error    
    1   -0.10712823E+02    0.00000000E+00    0.19318976E-03
    2   -0.10713134E+02   -0.31188883E-03    0.12151499E-03
    3   -0.10713134E+02    0.43378918E-08    0.26115163E-08

Total Energy:                      -10.2763404198 H         -279.6335 eV
Extrapolated to 0K:                -10.2763439694 H         -279.6335 eV
Total Mermin free energy:          -10.2763475190 H         -279.6336 eV
Force related energy:              -10.2763475190 H         -279.6336 eV

Volume:                              0.477225E+04 au^3   0.707175E+03 A^3
Pressure:                            0.141346E-04 au     0.415853E+09 Pa
Maximal force component:             0.162893E-04
Averaged force norm:                 0.167459E-04
Maximal Lattice force component:     0.188543E-01 au
Averaged lattice force norm:         0.117907E-01 au
>> Charges saved for restart in charges.bin

--------------------------------------------------------------------------------

***  Geometry step: 52, Lattice step: 5

 iSCC Total electronic   Diff electronic      SCC error    
    1   -0.10713134E+02    0.00000000E+00    0.26115163E-08

Total Energy:                      -10.2763404198 H         -279.6335 eV
Extrapolated to 0K:                -10.2763439694 H         -279.6335 eV
Total Mermin free energy:          -10.2763475190 H         -279.6336 eV
Force related energy:              -10.2763475190 H         -279.6336 eV

Volume:                              0.477225E+04 au^3   0.707175E+03 A^3
Pressure:                            0.141346E-04 au     0.415853E+09 Pa
Maximal force component:             0.162893E-04
Averaged force norm:                 0.167459E-04
Maximal Lattice force component:     0.188543E-01 au
Averaged lattice force norm:         0.117907E-01 au
>> Charges saved for restart in charges.bin

--------------------------------------------------------------------------------

***  Geometry step: 53, Lattice step: 6

 iSCC Total electronic   Diff electronic      SCC error    
    1   -0.10713134E+02    0.00000000E+00    0.24743635E-02
    2   -0.10694827E+02    0.18307321E-01    0.15496387E-02
    3   -0.10694827E+02   -0.16815197E-06    0.82690681E-07

Total Energy:                      -10.2769503082 H         -279.6500 eV
Extrapolated to 0K:                -10.2769529973 H         -279.6501 eV
Total Mermin free energy:          -10.2769556864 H         -279.6502 eV
Force related energy:              -10.2769556864 H         -279.6502 eV

Volume:                              0.482237E+04 au^3   0.714601E+03 A^3
Pressure:                           -0.493461E-06 au    -0.145181E+08 Pa
Maximal force component:             0.650986E-02
Averaged force norm:                 0.389221E-02
Maximal Lattice force component:     0.122689E-02 au
Averaged lattice force norm:         0.718462E-03 au
>> Charges saved for restart in charges.bin

--------------------------------------------------------------------------------

***  Geometry step: 54, Lattice step: 6

 iSCC Total electronic   Diff electronic      SCC error    
    1   -0.10694827E+02    0.00000000E+00    0.70448017E-04
    2   -0.10700797E+02   -0.59694589E-02    0.44757761E-04
    3   -0.10700797E+02   -0.73338668E-10    0.67737860E-08

Total Energy:                      -10.2759533926 H         -279.6229 eV
Extrapolated to 0K:                -10.2759534973 H         -279.6229 eV
Total Mermin free energy:          -10.2759536020 H         -279.6229 eV
Force related energy:              -10.2759536020 H         -279.6229 eV

Volume:                              0.482237E+04 au^3   0.714601E+03 A^3
Pressure:                            0.196794E-05 au     0.578987E+08 Pa
Maximal force component:             0.320479E-01
Averaged force norm:                 0.218887E-01
Maximal Lattice force component:     0.704852E-02 au
Averaged lattice force norm:         0.435167E-02 au
>> Charges saved for restart in charges.bin

--------------------------------------------------------------------------------

***  Geometry step: 55, Lattice step: 6

 iSCC Total electronic   Diff electronic      SCC error    
    1   -0.10700797E+02    0.00000000E+00    0.66934105E-04
    2   -0.10695725E+02    0.50718111E-02    0.42021508E-04
    3   -0.10695725E+02    0.10310242E-08    0.57298211E-08

Total Energy:                      -10.2769868539 H         -279.6510 eV
Extrapolated to 0K:                -10.2769886114 H         -279.6511 eV
Total Mermin free energy:          -10.2769903689 H         -279.6511 eV
Force related energy:              -10.2769903689 H         -279.6511 eV

Volume:                              0.482237E+04 au^3   0.714601E+03 A^3
Pressure:                           -0.212705E-06 au    -0.625799E+07 Pa
Maximal force component:             0.110581E-02
Averaged force norm:                 0.103092E-02
Maximal Lattice force component:     0.370932E-03 au
Averaged lattice force norm:         0.214248E-03 au
>> Charges saved for restart in charges.bin

--------------------------------------------------------------------------------

***  Geometry step: 56, Lattice step: 6

 iSCC Total electronic   Diff electronic      SCC error    
    1   -0.10695725E+02    0.00000000E+00    0.19750205E-02
    2   -0.10696562E+02   -0.83747240E-03    0.12391604E-02
    3   -0.10696563E+02   -0.17944958E-06    0.62778221E-07

Total Energy:                      -10.2769718831 H         -279.6506 eV
Extrapolated to 0K:                -10.2769735761 H         -279.6507 eV
Total Mermin free energy:          -10.2769752692 H         -279.6507 eV
Force related energy:              -10.2769752692 H         -279.6507 eV

Volume:                              0.482237E+04 au^3   0.714601E+03 A^3
Pressure:                            0.425601E-06 au     0.125216E+08 Pa
Maximal force component:             0.274954E-02
Averaged force norm:                 0.265387E-02
Maximal Lattice force component:     0.668161E-03 au
Averaged lattice force norm:         0.387596E-03 au
>> Charges saved for restart in charges.bin

--------------------------------------------------------------------------------

***  Geometry step: 57, Lattice step: 6

 iSCC Total electronic   Diff electronic      SCC error    
    1   -0.10696563E+02    0.00000000E+00    0.14425270E-02
    2   -0.10695950E+02    0.61295476E-03    0.90551365E-03
    3   -0.10695950E+02   -0.51587598E-07    0.29952349E-07

Total Energy:                      -10.2769892689 H         -279.6511 eV
Extrapolated to 0K:                -10.2769910090 H         -279.6512 eV
Total Mermin free energy:          -10.2769927492 H         -279.6512 eV
Force related energy:              -10.2769927492 H         -279.6512 eV

Volume:                              0.482237E+04 au^3   0.714601E+03 A^3
Pressure:                           -0.432133E-07 au    -0.127138E+07 Pa
Maximal force component:             0.215966E-03
Averaged force norm:                 0.140482E-03
Maximal Lattice force component:     0.945485E-04 au
Averaged lattice force norm:         0.564145E-04 au
>> Charges saved for restart in charges.bin

--------------------------------------------------------------------------------

***  Geometry step: 58, Lattice step: 6

 iSCC Total electronic   Diff electronic      SCC error    
    1   -0.10695950E+02    0.00000000E+00    0.32420929E-04
    2   -0.10695765E+02    0.18484409E-03    0.20338811E-04
    3   -0.10695765E+02    0.58761884E-09    0.11490906E-08

Total Energy:                      -10.2769868983 H         -279.6510 eV
Extrapolated to 0K:                -10.2769888310 H         -279.6511 eV
Total Mermin free energy:          -10.2769907637 H         -279.6511 eV
Force related energy:              -10.2769907637 H         -279.6511 eV

Volume:                              0.482237E+04 au^3   0.714601E+03 A^3
Pressure:                           -0.922385E-07 au    -0.271375E+07 Pa
Maximal force component:             0.148782E-02
Averaged force norm:                 0.968731E-03
Maximal Lattice force component:     0.314631E-03 au
Averaged lattice force norm:         0.192763E-03 au
>> Charges saved for restart in charges.bin

--------------------------------------------------------------------------------

***  Geometry step: 59, Lattice step: 6

 iSCC Total electronic   Diff electronic      SCC error    
    1   -0.10695765E+02    0.00000000E+00    0.28145005E-04
    2   -0.10695926E+02   -0.16131646E-03    0.17665463E-04
    3   -0.10695926E+02   -0.53475269E-09    0.98165387E-09

Total Energy:                      -10.2769892648 H         -279.6511 eV
Extrapolated to 0K:                -10.2769910285 H         -279.6512 eV
Total Mermin free energy:          -10.2769927922 H         -279.6512 eV
Force related energy:              -10.2769927922 H         -279.6512 eV

Volume:                              0.482237E+04 au^3   0.714601E+03 A^3
Pressure:                           -0.495941E-07 au    -0.145911E+07 Pa
Maximal force component:             0.125513E-04
Averaged force norm:                 0.115477E-04
Maximal Lattice force component:     0.685386E-04 au
Averaged lattice force norm:         0.409894E-04 au
>> Charges saved for restart in charges.bin

--------------------------------------------------------------------------------

***  Geometry step: 60, Lattice step: 6

 iSCC Total electronic   Diff electronic      SCC error    
    1   -0.10695926E+02    0.00000000E+00    0.98165387E-09

Total Energy:                      -10.2769892648 H         -279.6511 eV
Extrapolated to 0K:                -10.2769910285 H         -279.6512 eV
Total Mermin free energy:          -10.2769927922 H         -279.6512 eV
Force related energy:              -10.2769927922 H         -279.6512 eV

Volume:                              0.482237E+04 au^3   0.714601E+03 A^3
Pressure:                           -0.495941E-07 au    -0.145911E+07 Pa
Maximal force component:             0.125513E-04
Averaged force norm:                 0.115477E-04
Maximal Lattice force component:     0.685386E-04 au
Averaged lattice force norm:         0.409894E-04 au
>> Charges saved for restart in charges.bin

Geometry converged

--------------------------------------------------------------------------------
DFTB+ running times                          cpu [s]             wall clock [s]
--------------------------------------------------------------------------------
Pre-SCC initialisation                 +       3.01 (  1.9%)       1.00 (  2.3%)
SCC                                    +     132.78 ( 85.8%)      37.24 ( 84.3%)
Post-SCC processing                    +      18.87 ( 12.2%)       5.90 ( 13.4%)
Post-geometry optimisation             +       0.07 (  0.0%)       0.02 (  0.0%)
--------------------------------------------------------------------------------
Missing                                +       0.01 (  0.0%)       0.01 (  0.0%)
Total                                  =     154.75 (100.0%)      44.18 (100.0%)
--------------------------------------------------------------------------------
